18432
Timestep: 100000
O 1.749491 1.824522 2.183868
O 3.893331 3.114895 3.204072
H 3.127137 2.662191 2.805092
H 0.983731 2.399094 2.448837
H 4.734450 2.658845 2.872871
H 1.648934 0.910475 2.579335
O 6.236793 1.915353 2.273743
O 8.500788 3.039893 3.311399
H 7.661022 2.626123 3.057138
H 6.404927 1.846851 1.296249
H 8.449324 3.974690 3.009017
H 6.228145 0.970820 2.622704
O 10.553622 1.789087 2.183074
O 12.452381 3.479959 2.971809
H 9.736351 2.238206 2.521516
H 11.721379 2.952580 2.592362
H 10.543116 1.905833 1.212647
H 12.436517 3.483219 3.954880
H 3.883616 4.660646 2.492053
O 3.836720 5.609452 2.170327
O 1.747894 7.147843 2.857611
H 2.534790 6.601657 2.593829
H 4.679782 6.054648 2.436701
H 0.960464 6.649440 2.486279
O 8.380617 5.590966 2.478563
O 6.104260 6.845831 3.139565
H 7.553796 6.093544 2.710712
H 6.182092 6.932542 4.126519
H 9.087532 6.161044 2.848142
H 6.047596 7.728743 2.726680
O 12.733683 5.954543 2.094667
O 10.684404 7.365481 3.170039
H 11.957848 6.478626 2.437067
H 12.675693 5.031159 2.424388
H 10.642702 7.432328 4.167353
H 10.566726 8.275206 2.846526
O 1.744801 2.046815 6.766643
O 3.877446 3.343036 5.895589
H 1.720045 2.075694 7.750885
H 2.608830 2.483548 6.497990
H 3.799725 3.279664 4.921097
H 3.891681 4.302365 6.147612
O 6.211910 2.060516 6.759219
O 8.414148 3.275476 5.983505
H 6.268998 2.125574 7.766419
H 5.416217 2.636977 6.507373
H 8.493360 3.182308 4.977625
H 7.549286 2.821296 6.274049
O 10.660953 1.956722 6.798911
O 12.669856 3.439931 5.661922
H 9.777469 2.364699 6.518973
H 11.932063 2.896956 6.061866
H 13.479275 2.981938 5.971580
H 10.684139 1.051492 6.348766
O 3.909157 5.997708 6.754993
O 1.705969 7.156268 5.689255
H 3.913874 6.017405 7.738377
H 3.209511 6.611614 6.468590
H 1.648552 7.055720 4.713643
H 1.701491 8.112239 5.850398
H 8.342205 4.935944 6.397596
O 8.381996 5.906655 6.724896
O 6.174559 7.036410 5.679558
H 7.572790 6.359211 6.386254
H 5.351605 6.703490 6.094488
H 6.197054 7.990105 5.948005
H 9.877108 6.612038 6.136949
O 12.952378 5.850029 6.520817
O 10.654215 7.153931 5.803573
H 12.927761 4.904795 6.271724
H 11.428829 6.573104 6.049839
H 13.762062 6.280065 6.164288
O 1.715015 2.162097 9.455346
O 3.914622 3.445269 10.123538
H 2.559440 2.675093 9.642154
H 4.003225 3.463447 11.101554
H 3.880099 4.420390 9.816912
H 1.921689 1.247045 9.660201
O 6.269847 1.931711 9.415425
O 8.377062 3.412147 10.233475
H 5.458110 2.369127 9.736215
H 7.637942 2.845489 9.965742
H 8.239595 4.357331 9.910230
H 6.261517 0.946636 9.727705
H 13.569841 2.984533 10.109317
H 10.834340 1.403298 11.035706
O 10.741014 2.518509 9.465797
O 12.882981 3.588643 10.422511
H 10.708226 2.235082 8.537981
H 9.852755 2.892060 9.686072
H 11.982519 3.217878 10.097895
H 1.028903 6.542472 9.944497
O 3.879128 5.927521 9.366653
O 1.768315 7.061132 10.249580
H 3.054228 6.322842 9.783674
H 1.767233 7.985247 9.837357
H 4.663117 6.360976 9.743296
H 8.514954 6.158934 8.426216
O 8.430065 6.053006 9.393552
O 6.123731 7.173179 10.305663
H 6.132485 7.224775 11.285278
H 6.985091 6.786130 10.002578
H 9.216776 6.533814 9.784873
O 12.842924 6.067285 9.199434
O 10.651244 7.237013 10.232390
H 12.782494 6.026033 8.202286
H 12.881018 5.131682 9.534272
H 11.464907 6.788208 9.912400
H 10.620790 8.158669 9.867569
O 1.521871 3.226149 14.145597
O 3.907237 3.560846 12.764895
H 3.051129 3.235029 13.032344
H 1.687968 4.163941 14.285175
H 0.654203 3.188716 13.665413
O 6.017460 2.003220 13.668040
O 8.257103 3.440380 12.931601
H 5.238321 2.579822 13.391911
H 6.778280 2.575861 13.391340
H 8.305967 3.472463 11.945304
H 8.375311 4.394776 13.242282
H 9.705207 2.613073 13.546280
O 10.525396 2.154675 13.876264
O 12.847275 3.421605 12.961298
H 10.722922 1.438081 13.192310
H 12.740580 3.528333 11.983910
H 12.009790 3.056153 13.356046
O 11.067254 0.742105 11.733538
H 3.941272 4.488159 13.125833
H 0.830900 6.652940 13.163812
O 3.922437 5.983969 13.885459
O 1.657720 7.128348 12.974376
H 3.073280 6.395169 13.597052
H 1.779377 7.143845 12.007040
H 3.920617 6.018008 14.848798
O 8.234342 5.981005 13.801336
O 6.146917 7.233262 12.886369
H 9.089123 6.332350 13.484772
H 5.368732 6.800815 13.276034
H 7.012097 6.750671 13.177290
H 8.276203 5.946843 14.821556
H 12.863192 5.016929 13.456960
O 12.857833 5.949106 13.843483
O 10.592724 7.113589 12.902589
H 10.620525 7.186401 11.934395
H 12.765675 5.896693 14.831893
H 11.388136 6.599640 13.226462
O 1.909024 2.188584 16.631557
O 4.069174 3.385494 17.502891
H 1.848721 2.440519 15.696317
H 3.272196 2.918055 17.208259
H 4.804261 2.775720 17.210543
H 1.081377 2.515139 17.034072
O 6.062770 1.985047 16.438638
O 8.225482 3.380531 17.450521
H 7.529603 2.834487 16.985585
H 8.220123 4.279039 16.984957
H 6.054493 1.984715 15.453541
H 6.177052 1.032053 16.733214
H 9.754496 2.588573 16.841553
O 10.552242 2.094580 16.548176
O 12.681157 3.286766 17.117339
H 12.699992 3.217060 18.090558
H 11.794118 2.864331 16.892723
H 10.512769 2.015408 15.548801
O 3.894482 5.946548 16.542351
O 1.692323 7.242610 17.608603
H 3.944848 5.023909 16.938583
H 4.711933 6.444071 16.892781
H 2.463722 6.803029 17.178961
H 0.857137 6.764114 17.318653
O 8.221556 5.872266 16.368564
O 6.059693 7.051600 17.474622
H 7.437816 6.308458 16.760855
H 9.034529 6.323051 16.696149
H 6.108982 6.991210 18.482050
H 6.046429 7.979958 17.173478
O 12.598019 5.891232 16.526246
O 10.329938 6.973499 17.383873
H 11.732255 6.211822 16.899120
H 12.653728 4.920114 16.757086
H 10.284470 6.974298 18.389588
H 10.437536 7.920675 17.129446
O 1.727282 2.067865 20.913127
O 3.927382 3.277480 20.188224
H 3.971381 3.291004 19.184508
H 2.578737 2.518970 20.741738
H 3.941288 4.244662 20.557043
H 1.687665 1.217829 20.397591
H 0.588141 3.097534 20.441338
O 6.173710 2.055806 21.058701
O 8.351118 3.423985 20.158812
H 6.088131 1.952891 22.040201
H 5.324096 2.478327 20.769608
H 8.347722 3.459536 19.177484
H 7.553796 2.959080 20.525804
O 10.471810 1.839201 20.954760
O 12.434024 3.169233 19.778571
H 10.424855 1.988971 21.949453
H 9.681438 2.402249 20.637512
H 11.711829 2.611849 20.218150
H 13.288168 2.925558 20.148589
O 4.052270 5.811808 21.177377
O 1.857385 7.354473 20.361326
H 4.060101 5.821187 22.197655
H 3.275290 6.379954 20.916097
H 1.780285 7.372122 19.373944
H 8.317852 4.851152 20.851276
H 5.331121 6.754053 20.609870
O 8.229726 5.763822 21.213642
O 6.109035 7.172442 20.148761
H 7.449329 6.182248 20.784286
H 6.124103 8.144340 20.344878
H 9.550125 6.504332 20.469150
H 12.483312 4.762018 20.611412
O 12.475938 5.613702 21.047336
O 10.371481 6.937154 20.100388
H 11.144610 6.439502 20.467894
H 13.240736 6.131211 20.642024
O 1.695427 1.907438 23.581269
O 3.830895 3.209926 24.443580
H 1.760155 2.024492 22.600398
H 2.418567 2.474041 23.953572
H 3.957364 3.265790 25.417884
H 3.978178 4.109922 24.062139
O 6.121238 1.785816 23.697032
O 8.371332 3.241142 24.648321
H 5.247961 2.137726 23.943007
H 7.582128 2.795867 24.281957
H 8.294189 4.181560 24.343351
H 6.100811 0.821842 24.002173
H 10.582219 1.000161 23.817935
O 10.586675 1.926428 23.576015
O 12.730075 2.933171 24.709029
H 9.727543 2.261532 23.956371
H 11.944743 2.554387 24.239524
H 13.534029 2.475068 24.333300
O 4.077875 5.909238 23.714451
O 1.842492 7.170720 24.526333
H 3.263188 6.340559 24.057228
H 0.983337 6.698730 24.282985
H 4.847921 6.375828 24.082870
H 1.710638 8.069867 24.156486
O 8.356317 5.857230 23.843463
O 6.180342 7.240273 24.612455
H 8.225323 5.853829 22.886292
H 6.988381 6.721121 24.387269
H 6.189096 7.278954 25.626108
H 9.248715 6.228758 24.026959
O 12.755170 5.474959 23.705256
O 10.575852 6.877994 24.629017
H 12.691981 5.435600 22.723528
H 12.781804 4.573480 24.046320
H 11.375880 6.373669 24.315196
H 10.579937 7.817852 24.275390
H 0.990744 2.910171 27.759240
O 1.835606 2.880560 28.237255
O 4.213915 3.405056 27.109324
H 3.370275 3.131911 27.518063
H 4.309919 4.346913 27.406184
H 1.586185 2.641860 29.155476
H 5.402130 2.336761 27.630571
O 6.180342 1.825131 27.942108
O 8.498348 3.209575 27.322060
H 6.981908 2.294193 27.613266
H 8.413405 3.307134 26.318458
H 8.414466 4.147558 27.631541
H 10.249983 1.011498 28.991741
H 9.610609 2.001904 27.819606
O 10.360605 1.403212 28.085227
O 12.660466 2.858065 27.380884
H 12.708163 2.953096 26.396071
H 11.819956 2.393111 27.574088
H 1.022465 6.639373 27.400530
H 4.011719 5.879639 29.084203
O 4.113693 5.884750 28.094307
O 1.907926 7.039055 27.159124
H 3.241833 6.318759 27.760897
H 1.942869 7.167522 26.167287
O 8.361305 5.790733 28.096192
O 6.166282 7.197471 27.253013
H 9.178363 6.301798 27.817664
H 5.376080 6.749195 27.635711
H 6.956866 6.689856 27.557698
H 8.319072 5.788034 29.068668
H 10.600204 7.061562 26.297956
H 12.653993 4.632124 27.976603
H 12.663437 5.768232 29.160274
O 12.678664 5.583513 28.180887
O 10.554842 7.110084 27.298131
H 11.223450 6.453855 27.570433
O 1.688774 2.115993 30.852913
O 3.973413 3.350231 31.546690
H 3.157570 2.906789 31.259139
H 1.723605 1.165157 30.975072
H 0.848969 2.398000 31.154798
H 4.725049 2.798013 31.209168
O 6.097999 2.008066 30.691861
O 7.968692 3.527952 31.687410
H 7.208032 3.033190 31.292206
H 6.268308 1.100709 31.038179
H 6.074071 2.012506 29.701509
H 8.052679 4.453543 31.368791
H 9.490809 3.081828 31.238751
O 10.400131 2.765124 30.944289
O 12.776127 3.520578 31.757656
H 11.906490 3.130460 31.430014
H 10.354450 3.003911 30.009220
H 12.706571 3.572992 32.765998
H 10.385647 0.755593 31.173416
O 3.770873 5.943529 30.774329
O 1.539555 7.094586 31.741266
H 3.895496 5.007200 31.089464
H 2.355568 6.717056 31.298603
H 0.777065 6.597242 31.339951
H 4.592059 6.374942 31.140464
O 8.359289 6.027798 30.771987
O 6.088078 7.150733 31.789924
H 7.578361 6.499978 31.116534
H 9.198471 6.411865 31.101400
H 6.121609 7.143538 32.768168
H 6.019636 8.073987 31.451259
O 12.847328 6.073484 30.868904
O 10.647212 7.096370 31.846691
H 12.068947 6.453345 31.304656
H 12.842659 5.106819 31.164050
H 10.542904 7.114450 32.824936
H 10.580627 8.017287 31.536239
O 1.720443 1.859188 35.010381
O 4.055819 3.444592 34.327169
H 1.791039 1.932929 35.990510
H 2.532212 2.335230 34.700843
H 4.048535 3.412448 33.326708
H 3.992985 4.408601 34.548529
O 6.205808 1.960387 35.223974
O 8.358121 3.268410 34.253782
H 6.145113 1.974722 36.227405
H 5.422106 2.477171 34.875029
H 8.147914 3.420197 33.295241
H 7.538940 2.809433 34.603755
O 10.702018 2.121565 34.983025
O 12.701212 3.714890 34.448015
H 9.829729 2.515563 34.703184
H 10.586834 1.153870 35.140936
H 12.056903 3.037476 34.739164
H 13.594884 3.377819 34.787194
O 3.828629 6.008248 35.330885
O 1.554697 7.113650 34.449842
H 3.737639 5.876497 36.289484
H 3.005029 6.503274 34.983939
H 1.519155 7.118878 33.456863
H 1.550755 8.054923 34.740934
H 5.377279 6.906160 34.836994
O 8.411442 5.670414 35.374460
O 6.260084 7.158482 34.460122
H 7.589715 6.152692 35.074687
H 8.353877 4.754693 34.957211
H 6.324812 8.106396 34.754869
H 13.483785 6.607173 35.025001
H 9.693057 6.652890 34.778913
O 12.694793 6.139790 35.378001
O 10.463957 7.197532 34.472972
H 12.720684 5.225680 35.001529
H 11.305581 6.806903 34.884396
O 1.900249 1.925930 37.617358
O 4.061624 3.126721 38.687951
H 2.665509 2.391825 38.066703
H 4.002535 4.120678 38.467847
H 3.969142 2.991255 39.676190
H 1.869169 1.005289 37.974698
H 5.358200 2.309093 38.130153
O 6.142354 1.817413 37.731122
O 8.306763 2.933466 38.794861
H 7.437816 2.584920 38.427127
H 6.120548 0.879704 38.041974
H 8.456434 3.843130 38.455568
H 10.771946 2.301929 36.786287
O 10.790940 2.398160 37.752939
O 12.909350 3.410812 38.854199
H 9.866762 2.510379 38.032323
H 12.089267 3.023209 38.480697
H 13.683752 2.949068 38.464535
O 3.847204 5.691631 37.953225
O 1.743878 7.144153 38.582468
H 3.062419 6.264254 38.224328
H 4.679553 6.190285 38.171786
H 0.860313 6.685262 38.411308
H 1.586270 8.072757 38.358309
O 8.469485 5.588242 38.002911
O 6.192651 6.902347 38.670303
H 8.456327 5.609071 37.034147
H 7.000318 6.413667 38.423758
H 6.118479 6.844417 39.667109
H 9.180486 6.163178 38.291833
O 12.692087 5.936985 38.135122
O 10.498390 7.283444 38.851515
H 12.747318 5.980513 37.175324
H 12.763022 4.977848 38.416448
H 11.347601 6.889801 38.489035
H 10.472022 8.218874 38.490177
H 1.442548 1.737276 43.462326
H 0.836639 2.142369 42.031538
O 1.648627 1.851291 42.490592
O 3.660851 3.195745 41.315830
H 2.968702 2.712059 41.836335
H 3.626439 4.109104 41.692531
H 5.078517 2.350831 41.870201
O 5.897236 1.907229 42.190077
O 8.016495 3.308850 41.427024
H 6.664475 2.492773 41.845587
H 8.080056 3.284054 40.442612
H 8.192163 4.227172 41.721543
H 9.424913 2.378597 41.815147
O 10.219317 1.864452 42.129654
O 12.707685 3.308075 41.479851
H 10.212844 1.935887 43.105271
H 12.920067 3.234230 40.487786
H 11.880705 2.800639 41.597442
O 3.782370 5.791305 42.357467
O 1.568475 7.139418 41.370599
H 2.992391 6.333795 42.073457
H 1.730736 7.016977 40.427249
H 3.767769 5.835946 43.314410
H 0.840609 6.469088 41.605780
H 8.078730 5.963361 43.348162
O 8.200493 5.873644 42.368890
O 5.967111 7.014825 41.329822
H 8.996488 6.381492 42.090590
H 5.260095 6.443161 41.703324
H 6.851709 6.590791 41.677168
H 10.668912 7.085977 40.418511
O 10.563012 6.967472 41.396927
H 12.820694 5.758287 43.382200
O 12.801700 5.839353 42.394075
H 12.664551 4.897268 42.084822
H 11.367709 6.550522 41.729652
O 1.456342 1.724546 45.172098
O 3.751444 3.034703 45.859251
H 3.002944 2.501284 45.565361
H 4.560894 2.558390 45.545658
H 0.732084 2.246416 45.648913
H 1.475219 0.812065 45.589233
O 5.891400 1.780551 44.875067
O 8.076554 3.172075 45.838748
H 7.345817 2.625895 45.436519
H 7.956277 4.111865 45.557651
H 5.865705 0.837828 45.216644
H 5.925939 1.745271 43.887228
H 9.539514 2.876071 45.107335
O 10.360392 2.575148 44.663701
O 12.686516 3.159591 46.059423
H 11.799158 2.781722 45.872843
H 10.685465 3.393421 44.222009
H 12.691450 3.162653 47.048233
O 3.750255 5.712337 45.157478
O 1.576163 7.214259 45.721900
H 3.806553 4.739141 45.388090
H 2.321634 6.617800 45.517274
H 4.596192 6.150214 45.470500
H 0.785081 6.734232 45.428410
H 5.922491 7.861700 45.777469
O 8.093267 5.773613 44.961532
O 6.013694 6.904253 45.962507
H 7.298757 6.301121 45.330922
H 8.921096 6.102050 45.383464
H 5.936285 6.766414 46.946291
O 12.754587 5.689891 45.030921
O 10.501043 6.884882 45.845830
H 11.903254 6.131851 45.318644
H 12.710816 4.826706 45.529552
H 10.599356 6.885128 46.847718
H 10.422733 7.835379 45.511220
O 1.700542 1.741562 49.516432
O 3.813100 3.021296 48.556348
H 2.456889 2.277699 49.127967
H 3.778773 3.089232 47.558629
H 3.814517 3.980114 48.837046
H 1.813789 1.724589 50.505356
O 6.097681 1.922966 49.539390
O 8.319762 3.044093 48.570169
H 6.059693 1.987993 50.542364
H 5.275736 2.400699 49.203981
H 8.197362 3.003284 47.586385
H 7.533953 2.609931 48.977481
O 10.474675 1.831846 49.749100
O 12.728271 3.074866 48.643442
H 9.664991 2.371839 49.467317
H 11.897471 2.625360 48.999754
H 13.529254 2.588308 49.077196
H 10.595217 0.994805 49.243501
O 3.605233 5.566847 49.281251
O 1.513716 6.985368 48.461145
H 2.828343 6.032736 48.874054
H 1.423941 7.097600 47.470393
H 1.619138 7.918154 48.770741
H 3.512629 5.576244 50.281769
H 5.142433 6.578799 48.947898
H 8.240550 4.734344 48.895299
O 8.269465 5.658736 49.213004
O 5.972628 6.982293 48.591243
H 7.389217 6.020492 48.989303
H 5.917610 7.942630 48.853837
H 12.825204 4.637628 49.310092
O 12.773209 5.578052 49.603068
O 10.606836 7.060087 48.691643
H 9.748023 6.580908 48.873825
H 11.354551 6.439693 48.983249
H 13.555357 6.007147 49.161491
O 1.741851 1.713919 52.104106
O 3.688239 3.239881 53.092059
H 2.468179 2.269170 52.480007
H 3.771281 4.141415 52.691886
H 3.714374 3.278212 54.111880
H 1.791840 0.787104 52.497425
O 5.957614 1.964575 52.215928
O 8.228984 3.290100 53.063904
H 5.140459 2.426264 52.574010
H 7.415533 2.781151 52.762932
H 8.220229 4.167889 52.580007
H 5.947745 1.043857 52.569042
H 13.553447 2.775161 52.776010
O 10.545716 2.003847 52.415757
O 12.753950 3.149395 53.217417
H 10.581635 1.930801 51.435343
H 9.619893 2.370738 52.596226
H 11.936679 2.749000 52.832892
H 11.467560 0.852644 53.936894
O 3.871191 5.691981 51.960644
O 1.794323 7.137757 52.866073
H 3.192719 6.336482 52.311017
H 4.754092 6.081227 52.207133
H 0.990648 6.680410 52.607877
H 1.826050 8.082166 52.565101
O 8.452507 5.567548 51.968468
O 6.187663 6.683251 52.882749
H 8.386241 5.643540 50.989824
H 9.227599 6.128622 52.273724
H 7.060855 6.239809 52.715530
H 6.095240 6.781481 53.854598
H 10.541260 7.800633 52.536946
H 12.778992 5.518603 51.251561
O 12.754693 5.655016 52.234774
O 10.539615 6.905975 52.957393
H 12.724557 4.753156 52.647169
H 11.357682 6.503133 52.592914
H 0.977411 2.214290 56.208062
H 1.714888 1.722880 57.499671
O 1.745798 1.640019 56.537418
O 3.846504 3.150600 55.716684
H 3.112499 2.646933 56.142385
H 3.797082 4.073996 55.969055
O 6.295579 2.076961 56.763975
O 8.379821 3.359444 55.759516
H 5.502374 2.521541 56.400238
H 7.038465 2.624604 56.412746
H 8.363374 3.439992 54.750318
H 8.440888 4.302272 56.072310
H 9.762454 2.524075 56.236960
O 10.555107 2.013816 56.568486
O 12.725936 3.340570 55.889500
H 10.687269 1.311938 55.899208
H 12.692087 3.213062 54.935527
H 12.020666 2.769017 56.247868
H 0.951697 6.616392 55.792869
O 3.879032 5.755895 56.536561
O 1.727383 7.152271 55.514969
H 3.106535 6.288398 56.184190
H 1.703147 7.027616 54.542664
H 3.848780 5.758558 57.515548
O 8.388310 5.829415 56.731250
O 6.173497 6.806657 55.591612
H 5.327874 6.426668 55.950151
H 6.954584 6.391448 56.107376
H 9.147485 6.354003 56.361746
H 8.475640 5.813948 57.702071
H 12.665241 5.970335 57.595103
H 12.667098 4.956373 56.370941
O 12.692193 5.929028 56.620342
H 10.463321 7.238858 54.553230
O 10.420399 7.299002 55.549407
H 11.228703 6.844786 55.933475
O 1.590738 9.662209 2.046466
O 4.020256 10.801317 2.927263
H 2.441158 10.052161 2.333583
H 4.104174 11.785823 2.708421
H 4.851035 10.368994 2.618124
H 1.695066 8.695045 2.249876
O 6.243796 9.433624 1.885237
O 8.202509 10.900758 3.005242
H 7.078310 9.833478 2.211275
H 8.328304 10.943990 3.983332
H 9.083234 10.570581 2.669832
H 6.279397 9.503485 0.915130
O 10.512928 9.829665 1.895683
O 12.816290 11.032300 2.848753
H 11.375880 10.169251 2.224525
H 12.710656 11.933108 2.495194
H 10.573305 9.805866 0.886920
H 13.633455 10.569351 2.470271
O 4.006419 13.399504 2.305490
O 1.694430 14.560751 3.120793
H 3.211920 13.839084 2.637313
H 4.817254 13.884715 2.617119
H 1.574518 15.483883 2.839153
H 0.855541 14.139190 2.862848
H 8.134014 12.510749 2.347838
O 8.298752 13.431113 2.007551
O 6.200556 14.778881 3.031627
H 6.256477 14.845851 4.052407
H 6.992731 14.213109 2.718787
H 8.336475 13.383330 1.004104
H 10.242556 15.755146 2.411573
H 9.605356 14.271162 2.605857
H 12.872795 14.354429 1.231170
O 12.686251 13.870940 2.087420
O 10.337154 14.888715 2.918959
H 11.809982 14.200318 2.378460
H 4.104307 10.951862 4.606681
O 1.850445 9.749657 6.607077
O 4.039399 11.045829 5.622379
H 2.606363 10.214698 6.179108
H 4.805152 10.504840 5.945144
H 1.058620 10.202029 6.221736
O 6.221407 9.659134 6.534141
O 8.422849 11.058436 5.644652
H 6.253081 9.622174 7.535635
H 6.992678 10.181674 6.232472
H 9.228872 10.567629 6.019496
H 8.480521 12.022709 5.936515
H 12.738245 10.980766 4.565647
O 10.664402 9.721984 6.651166
O 12.740898 11.072704 5.568461
H 10.701859 9.725551 7.627755
H 10.651456 8.750700 6.379720
H 11.912645 10.643885 5.923568
H 4.319634 12.645120 6.162449
O 4.115894 13.572372 6.457910
O 1.836322 14.869774 5.871426
H 4.098731 13.579997 7.461449
H 1.682004 14.828694 4.914992
H 2.714899 14.437450 6.058069
O 8.453675 13.801940 6.373986
O 6.197638 15.131382 5.655634
H 7.698744 14.375768 6.119771
H 5.460290 14.601647 6.059702
H 9.294290 14.330261 6.122066
H 6.169359 15.992524 6.121210
H 12.752570 12.711598 6.216236
H 10.624557 15.010294 4.520547
O 12.694103 13.634668 6.565797
O 10.717564 15.050329 5.492418
H 11.441828 14.479206 5.804921
H 13.516945 14.125045 6.340936
O 1.826151 9.434424 9.227532
O 3.827202 11.083958 10.073109
H 1.753040 9.667190 8.243748
H 3.819833 10.980089 11.059292
H 3.095913 10.501089 9.741983
H 1.037917 9.883782 9.634501
H 5.961593 8.809430 9.614341
O 6.053963 9.718540 9.305659
O 8.319762 10.940485 10.198410
H 5.237504 10.229211 9.594981
H 8.178793 10.980766 11.162262
H 7.499626 10.483993 9.802520
O 10.498390 9.704457 9.331930
O 12.722859 11.035006 10.111316
H 9.693269 10.184995 9.681275
H 11.290672 10.248951 9.625192
H 12.753632 11.046813 11.072884
H 12.696331 11.989132 9.860544
O 3.981525 13.523482 9.105087
O 1.755518 14.602262 10.158946
H 3.997076 12.616401 9.581674
H 2.610533 14.266181 9.767454
H 1.711821 15.579695 9.900464
H 4.684827 14.082858 9.462884
H 8.337589 13.407437 8.265621
O 8.330904 13.463645 9.223591
O 6.148402 14.789336 10.182875
H 8.316897 12.538915 9.540897
H 6.258705 14.842100 11.172085
H 6.974533 14.299512 9.874765
H 12.522043 13.516717 8.320847
O 12.608312 13.457188 9.274363
O 10.573146 14.935207 10.245526
H 9.738420 14.502452 9.870596
H 11.334178 14.395939 9.918054
H 13.470680 13.894370 9.451805
H 1.625240 9.799716 14.962562
O 1.618109 9.762080 13.959760
O 3.690838 10.950079 12.726346
H 1.531066 8.805494 13.682375
H 2.901443 10.542354 13.194480
H 3.767520 11.862448 13.055302
O 6.020113 9.839873 13.507046
O 8.325545 10.984148 12.936741
H 5.163141 10.249628 13.313670
H 7.443652 10.548134 13.202476
H 9.080157 10.409766 13.234400
H 5.937559 8.917726 13.235828
O 10.453081 9.631153 13.792255
O 12.448455 11.032731 12.902417
H 11.239473 10.140102 13.492539
H 12.363459 11.925052 13.319095
H 10.561845 8.693877 13.468382
H 13.272994 10.686626 13.338398
H 1.859682 14.726855 11.804469
H 3.997076 13.428838 14.681693
O 4.023339 13.460263 13.702763
O 1.824597 14.678887 12.786140
H 2.593518 14.152288 13.165468
H 4.856691 13.881271 13.381517
O 8.410169 13.481971 13.806533
O 6.291175 14.672983 12.785912
H 8.420568 12.554043 13.438399
H 7.061545 14.176703 13.173635
H 9.233488 13.910851 13.423436
H 6.367204 15.607922 13.095393
O 12.577486 13.406514 13.925893
H 10.610179 14.999655 11.920346
H 10.509214 15.859752 13.255817
O 10.584341 14.911469 12.908071
H 11.866274 14.003097 13.523779
H 13.357884 13.532399 13.334743
O 1.836471 9.858015 16.594664
O 4.117210 10.865828 17.281646
H 2.725972 10.221339 16.821221
H 4.151553 11.835205 16.983586
H 1.823281 8.924060 16.911284
H 4.942036 10.435103 16.941896
O 6.198964 9.483498 16.288152
O 8.261454 10.699724 17.308088
H 7.012840 9.997429 16.630244
H 8.282994 10.717005 18.274111
H 9.124724 10.225706 17.091925
H 6.224219 9.622113 15.347315
H 10.630765 9.495675 15.544689
O 10.533566 9.477841 16.543550
O 12.767797 10.868903 17.595582
H 11.291892 9.970801 16.904317
H 12.633301 11.766451 17.164798
H 13.568780 10.499244 17.203004
O 3.974416 13.477113 16.285468
O 1.852334 13.559826 17.744811
H 3.124967 13.615850 16.835613
H 4.679463 14.036428 16.672963
H 1.752298 14.161021 18.542872
H 1.003583 13.602751 17.280161
H 8.150302 12.407865 16.825105
O 8.266282 13.353320 16.515338
O 6.128453 14.840501 17.370281
H 6.135563 14.725256 18.344699
H 6.961906 14.395202 17.083073
H 8.267555 13.362360 15.550286
H 9.594480 14.093313 17.182216
O 12.699196 13.387450 16.619450
O 10.324792 14.587687 17.542126
H 11.873649 13.824140 16.834414
H 10.334183 14.612101 18.520542
H 12.724610 13.366726 15.632867
O 1.546659 9.956779 21.041511
O 3.955215 11.157815 19.984740
H 2.332515 10.431229 20.736427
H 3.939675 11.029041 18.995358
H 4.735559 10.623407 20.288339
H 0.735211 10.372929 20.681658
H 1.730677 8.325141 20.578288
O 6.090624 9.727088 20.846251
O 8.323635 10.824010 19.949617
H 6.108451 9.759743 21.837973
H 6.955805 10.185179 20.518380
H 8.321937 11.755136 20.295649
H 9.129605 10.341873 20.332428
H 10.317364 8.470766 20.675490
O 10.290889 9.412162 21.007188
O 12.598762 10.594565 20.115180
H 10.306276 9.436023 21.975210
H 12.646830 10.585155 19.132937
H 11.775867 10.173126 20.427231
H 1.543162 15.867685 20.404844
H 3.880921 12.685647 20.548762
O 3.831081 13.623230 20.869723
O 1.515706 14.863317 20.301703
H 3.905894 13.520407 21.853393
H 2.409170 14.539596 20.586627
O 8.325492 13.376627 20.914041
O 6.093702 14.636454 20.040708
H 7.494533 13.844742 20.610099
H 9.094747 13.944429 20.683257
H 5.300083 14.176641 20.392051
H 6.040964 15.603679 20.360127
H 12.415826 12.282841 20.732658
O 12.573083 13.200192 21.079661
O 10.535423 14.797453 20.136368
H 11.353755 14.333213 20.445735
H 10.536378 15.739895 20.539339
H 13.428129 13.439046 20.676119
H 0.858452 10.036910 24.097148
O 1.610055 9.609075 23.647003
O 3.886587 10.894670 24.445122
H 1.483830 9.731393 22.687434
H 3.108355 10.328713 24.206686
H 3.836513 10.940731 25.439015
O 6.279874 9.715219 23.561395
O 8.426669 10.847071 24.430730
H 5.498803 10.187885 23.889551
H 8.363109 10.758761 25.434731
H 7.611680 10.415608 24.045806
H 6.286665 8.830093 23.982870
O 10.544231 9.365547 23.734497
O 12.714795 10.878066 24.529303
H 9.770837 9.909365 23.994463
H 11.368664 9.826098 24.057056
H 12.848814 10.948541 25.505663
H 12.670546 11.817801 24.211654
H 4.038523 12.347967 23.825245
H 1.822883 15.496428 24.024161
O 4.074405 13.331304 23.481612
O 1.924676 14.602323 24.450033
H 2.765880 14.237400 24.042379
H 4.856818 13.838531 23.822789
O 8.456487 13.515364 23.663965
O 6.189096 14.709820 24.475847
H 8.390008 13.403747 22.701312
H 8.413299 12.560008 24.018678
H 6.113598 14.617575 25.468255
H 7.036131 14.320790 24.138781
H 12.682484 13.320296 22.723528
H 13.649902 13.801879 23.909140
O 12.753897 13.424041 23.706170
O 10.565984 14.751577 24.650434
H 9.777097 14.261876 24.332386
H 11.333806 14.305293 24.260826
H 1.890635 8.611963 27.924347
O 1.749438 9.523656 28.268209
O 3.756229 11.004134 27.118062
H 3.054440 10.497461 27.545819
H 3.752017 11.905373 27.502929
H 1.850716 9.479747 29.249252
O 6.222945 9.734099 28.097677
O 8.379078 10.903894 27.003669
H 5.465161 10.225829 27.698760
H 7.627597 10.483132 27.504642
H 9.177355 10.485038 27.382826
H 6.107655 8.774438 27.810240
H 13.594088 10.493894 27.574888
O 10.513936 9.606615 28.100247
O 12.705245 10.845595 27.283568
H 11.365746 10.015140 27.837082
H 12.652773 11.781579 27.569291
H 10.545504 8.674813 27.825317
O 3.832460 13.446241 28.214182
O 1.720480 14.783740 27.105497
H 1.781213 14.719229 26.123540
H 2.475257 14.327493 27.531712
H 4.759949 13.765411 28.090252
H 3.785776 13.378472 29.204934
O 8.473571 13.418752 27.996134
O 6.137260 14.474102 27.336338
H 8.572254 12.529936 27.589622
H 6.977292 14.074126 27.562495
H 6.126490 15.408364 27.612181
H 9.287658 13.942215 27.781628
H 10.540092 15.014046 26.336163
O 10.581476 14.980099 27.346960
H 11.816136 13.922351 27.890709
H 13.443622 13.652625 27.887796
H 10.481837 15.913378 27.739994
O 12.586081 13.359961 28.236855
O 1.699136 9.745660 30.960223
O 3.890301 11.057145 31.678901
H 2.523834 10.153570 31.303857
H 3.959109 12.024062 31.536296
H 4.772157 10.665040 31.347204
H 1.667891 8.796085 31.373075
O 6.159597 9.707347 30.740063
O 8.321088 11.076209 31.759769
H 7.035123 10.074730 31.029327
H 8.245802 11.099639 32.744296
H 9.175657 10.608832 31.535097
H 6.241462 9.782558 29.752794
O 10.506614 9.762141 30.879583
O 12.819368 10.991528 31.832414
H 11.376092 10.198093 31.174273
H 12.817988 11.963242 31.526816
H 10.471544 9.679182 29.886604
H 13.590002 10.457119 31.469591
O 3.984624 13.644262 31.117962
O 1.740891 15.019396 31.830872
H 3.189859 14.136484 31.404771
H 4.766703 14.156286 31.338637
H 1.727239 15.972169 31.520762
H 0.934638 14.577294 31.462681
O 8.453409 13.601767 30.796602
O 6.188618 14.916880 31.783470
H 8.333450 12.678636 31.164336
H 6.291334 14.890929 32.742240
H 6.998939 14.470105 31.435611
H 8.477178 13.502327 29.800539
H 12.495993 13.457065 29.924754
H 9.776673 14.545193 31.491350
O 12.719411 13.534490 30.899229
O 10.599992 14.984527 31.854573
H 11.988939 14.087102 31.302943
H 10.536591 14.837857 32.851036
H 0.729543 10.163040 34.768747
O 1.575914 9.774933 35.127686
O 3.903120 10.998231 34.382680
H 2.345419 10.251534 34.729569
H 3.974968 10.961886 33.406492
H 4.667494 10.522183 34.784052
O 6.057836 9.643637 35.352187
O 8.236040 11.011330 34.458009
H 6.056669 9.665038 36.349392
H 6.857704 10.197355 35.035110
H 8.252912 11.910600 34.849387
H 8.990440 10.509453 34.808781
O 10.291844 9.697139 35.473090
O 12.576425 10.835018 34.480054
H 10.522106 9.760542 36.433059
H 12.630383 10.851745 33.475253
H 11.760693 10.424833 34.831054
H 10.304843 8.770994 35.154128
H 1.701619 14.846528 33.529793
O 4.049044 13.519669 35.236196
O 1.629431 14.649922 34.484965
H 4.020256 13.482463 36.239626
H 4.039749 12.522680 34.966406
H 2.493296 14.277250 34.760580
O 8.316419 13.492672 35.583142
O 6.301574 14.754344 34.504154
H 7.568333 14.009062 35.145904
H 5.481979 14.251483 34.841848
H 6.153548 15.718309 34.764235
H 9.148121 13.961279 35.220034
H 10.571767 15.631967 34.794618
H 12.686092 12.452512 34.930598
O 12.761643 13.445442 35.036538
O 10.496693 14.701826 34.496216
H 11.374712 14.217106 34.707296
H 13.597749 13.724146 34.580340
H 12.966438 14.196812 36.557274
O 1.451461 9.866686 37.793373
O 3.832985 10.790432 38.843462
H 1.389041 9.877202 36.819868
H 3.687713 10.714545 39.836099
H 3.010462 10.449616 38.462650
H 0.765513 10.465913 38.182066
H 5.184628 9.966311 38.346087
O 6.002180 9.516461 38.018102
O 8.081542 10.794737 39.064537
H 8.032677 10.689762 40.038841
H 7.315523 10.342304 38.645518
H 6.029663 8.567070 38.353341
H 9.718099 10.408044 38.523358
O 10.484649 9.935809 38.129525
O 12.585126 11.359587 39.114794
H 11.297941 10.458902 38.441005
H 12.650756 11.140719 40.101548
O 4.054180 13.459525 37.916446
O 1.753804 14.722796 38.526728
H 4.002684 12.519912 38.249628
H 2.627102 14.322943 38.294517
H 1.775000 15.690759 38.370474
H 4.917132 13.798742 38.299257
H 8.363055 12.474036 38.622559
O 8.517235 13.388373 38.305025
O 6.267406 14.612962 38.909368
H 8.460519 13.360761 37.298282
H 6.184904 14.582214 39.890811
H 7.158690 14.142879 38.698402
H 12.165615 12.271464 39.132498
H 13.183065 15.686023 36.933804
O 12.924365 14.810060 37.351795
O 11.287542 13.707173 39.039694
H 10.342035 13.656377 38.763679
H 11.737985 14.307937 38.392804
H 1.409637 9.690620 43.117493
O 1.461727 9.731393 42.163349
O 3.907704 10.713930 41.581108
H 3.072325 10.380924 41.940790
H 4.031637 11.672791 41.876712
H 1.445407 8.820622 41.871172
H 5.272144 9.885197 42.264720