18432
Timestep: 350000
O 2.146943 2.822185 2.821096
O 4.279213 3.813305 4.005217
H 3.440601 3.450843 3.621767
H 4.354555 3.729472 5.632022
H 5.050315 3.272487 3.698167
H 2.112960 1.854636 3.131843
H 1.313121 3.244996 3.111949
O 6.412866 2.567895 3.079865
O 8.451151 4.112090 3.948457
H 7.667088 3.595376 3.656672
H 8.412684 5.046006 3.632584
H 8.602323 3.837385 5.593575
H 6.563935 1.581534 3.176114
H 6.332252 2.746143 2.082376
H 9.776552 3.381762 3.309673
O 10.589232 2.819515 3.089185
O 12.700096 3.751087 4.162893
H 11.879536 3.321020 3.898440
H 12.693875 3.810858 5.171950
H 10.588921 2.702714 2.103291
H 14.056188 3.155089 3.683997
H 1.254701 7.119528 3.512761
H 4.352196 5.418350 3.611560
O 4.289234 6.339660 3.239641
O 2.015201 7.685926 3.844156
H 2.851776 7.259782 3.491776
H 2.277446 7.518103 5.568611
H 5.088015 6.811836 3.569107
O 8.459705 6.650672 3.234980
O 6.224756 7.911478 4.057390
H 7.628932 7.127904 3.531203
H 6.326497 7.870622 5.007031
H 9.264713 7.214220 3.438484
H 6.229521 8.823628 3.702799
H 12.734934 5.290817 3.548476
O 12.776201 6.196844 3.085190
O 10.814383 7.752995 3.792864
H 12.002713 6.754451 3.404676
H 10.854976 7.740280 4.782537
H 10.858087 8.699131 3.500969
O 4.353347 3.699631 6.593909
O 2.158815 2.394624 7.323583
H 2.916630 2.946283 7.051793
H 2.136206 2.447798 8.319379
O 2.086132 2.479675 9.951553
H 2.806258 2.986434 10.440363
H 4.463144 4.647834 6.845668
H 2.207609 1.536938 10.195986
H 4.118496 4.780755 10.491122
O 4.129575 3.807803 10.822999
H 5.524113 2.859660 10.358848
H 6.498095 1.617128 10.441083
H 5.719760 2.970490 7.048401
O 8.724930 3.639359 6.555596
O 6.531948 2.452769 7.405929
H 6.402705 2.407948 8.375015
H 7.834746 3.305220 6.895037
O 6.402861 2.532492 10.020101
H 7.722611 3.367366 10.558839
H 8.635710 4.707937 10.526698
O 8.579253 3.784537 10.909778
H 9.957948 2.959528 10.561277
H 9.991075 2.903360 7.295488
O 10.723504 2.397439 7.754319
O 12.844166 3.959579 6.780196
H 12.134341 3.460081 7.271294
O 10.843104 2.488196 10.312356
H 10.788048 2.307833 9.342051
H 13.737565 3.467348 6.845696
H 12.232478 3.313680 10.369155
O 13.098556 3.753033 10.594747
H 10.740042 1.537319 7.296652
H 13.901024 3.214529 10.339509
O 2.349709 7.436451 6.518557
H 2.408954 8.390843 6.841124
O 4.573568 6.231463 7.320258
H 3.750141 6.713763 6.974756
H 4.391125 6.220388 8.298266
O 4.278393 6.305661 10.034841
H 3.572742 6.883894 10.409165
H 2.292786 8.659842 10.453884
O 2.265237 7.793730 10.932165
H 5.122008 6.638246 10.393039
H 1.426389 7.313485 10.617467
O 6.709404 7.499724 6.617582
H 5.907658 7.040292 6.948550
H 8.807308 5.220964 6.981134
O 8.826230 6.155590 7.367693
H 7.982704 6.644995 7.019436
H 8.845619 6.218905 8.971883
O 8.731203 6.264606 9.981698
H 7.397663 7.169555 10.331141
H 9.543573 6.748714 10.322275
H 6.666116 8.477737 6.969558
O 6.603335 7.682491 10.577624
H 10.046339 7.187748 6.834164
O 10.770836 7.743835 6.417260
H 13.176890 5.387353 10.145115
O 12.949821 6.546254 7.158105
H 12.993368 5.594905 6.905083
H 11.628152 7.329677 6.632179
O 13.223237 6.366915 9.881454
H 13.180778 6.466036 8.894968
H 11.757810 7.074622 10.357518
O 10.952077 7.527082 10.742426
H 13.756073 6.953199 6.757947
H 10.902464 8.442425 10.377966
H 1.257930 3.902055 14.299584
H 1.972939 4.891030 15.193750
H 4.120549 3.874348 11.827550
O 2.103421 4.012505 14.777200
O 4.385360 4.127685 13.367902
H 3.549532 3.918916 13.866521
H 4.473528 5.113171 13.547556
H 5.725753 3.245364 13.900822
O 6.566786 2.759539 14.227379
O 8.835925 3.779053 13.628294
H 7.353131 3.305286 14.013590
H 8.755103 3.774630 12.640423
H 8.722390 4.732849 13.937285
H 10.179419 2.918925 14.103362
O 11.059442 2.486936 14.206654
O 12.982015 4.060809 13.284947
H 13.008454 3.990516 12.313534
H 12.219933 3.492796 13.592331
H 11.021649 1.696387 13.596320
H 1.243672 7.488937 13.885971
O 4.391959 6.680012 14.141597
O 2.066152 7.930701 13.533702
H 3.578833 7.155485 13.895114
H 2.084043 7.757635 12.559629
H 4.419824 6.679867 15.167428
H 8.733433 6.381944 15.331953
H 5.786715 7.313738 13.737793
H 6.594937 7.724070 11.571536
O 8.664534 6.368108 14.344525
O 6.533037 7.840853 13.293703
H 7.348361 7.496891 13.681548
H 9.497692 6.770263 13.957400
H 13.212765 5.557453 13.976352
O 13.174557 6.472701 14.394952
H 13.132720 6.341594 15.380551
H 11.662213 6.985745 13.713355
O 10.850051 7.385405 13.368900
H 10.857102 7.380199 12.365180
O 2.096428 2.708643 17.105544
O 4.357691 3.892962 17.667723
H 2.064145 2.945452 16.158292
H 3.566852 3.345618 17.463521
H 4.226546 3.863543 19.406957
H 5.183597 3.399604 17.446232
H 1.285968 3.115251 17.536945
O 6.557662 2.703949 16.861943
O 8.829496 3.807875 17.539660
H 7.997531 3.383009 17.271510
H 8.795488 4.755982 17.203184
H 8.666038 3.960893 19.160197
H 6.561343 2.763980 15.873462
H 6.594470 1.707246 17.087701
O 8.491121 4.027208 20.142139
H 10.173975 2.671192 17.221471
O 11.037565 2.308863 16.935976
O 12.836856 3.955626 17.859623
H 12.036981 3.462793 17.528023
H 10.976702 2.333744 15.970825
H 12.857334 3.820229 18.871821
H 13.965256 1.670564 16.508843
H 13.920620 3.067839 17.299605
H 1.468666 7.356848 17.451274
H 4.206524 5.371565 16.998650
O 4.234633 6.300708 16.690879
O 2.300458 7.861703 17.596349
H 3.036728 7.304844 17.252614
H 2.309235 7.743173 19.314859
H 5.013326 6.729099 17.143503
O 8.823534 6.402974 16.997320
O 6.372066 7.414040 17.612475
H 7.933713 6.736005 17.334572
H 6.306901 7.443381 18.607162
H 6.389745 8.379936 17.281097
H 9.598214 6.870583 17.447617
H 10.951610 8.573128 17.656086
H 13.019912 5.514976 17.431713
O 13.269325 6.412236 17.095237
O 10.986967 7.609155 17.954547
H 12.490446 6.930692 17.394696
H 10.861301 7.566070 18.936656
O 4.004692 3.781849 20.374436
O 1.829170 2.516162 21.188750
H 2.621243 3.037179 20.915723
O 1.926437 2.310894 23.715145
H 1.880696 2.289447 22.706826
H 2.748329 2.799009 23.982464
H 4.187970 4.483320 24.426222
H 4.032863 4.703418 20.708640
H 1.968450 1.619237 20.740947
O 4.043517 3.529416 24.645940
H 6.329711 1.709163 24.035163
H 5.461482 2.950622 20.840637
O 6.298450 2.479512 21.044229
H 7.723337 3.458556 20.424032
H 6.380672 2.590143 22.002565
O 6.295288 2.682418 23.686274
H 5.451756 2.995654 24.035163
H 8.515436 4.775452 24.372193
H 7.639197 3.398954 24.280759
O 8.493610 3.787803 24.627708
H 10.850880 1.748345 24.068966
H 13.670170 3.301062 20.820134
O 12.963352 3.888623 20.500338
H 9.930835 3.309245 20.750533
H 9.833371 3.021216 24.116123
O 10.653620 2.701262 21.032149
H 10.725681 2.735218 22.008439
H 12.105413 3.471096 20.692237
O 10.736931 2.696622 23.801148
H 12.022258 3.425480 24.368425
O 12.829806 3.916789 24.709666
H 13.618016 3.393904 24.380727
H 1.190358 6.859188 24.265465
O 2.223752 7.778605 20.311375
H 2.016404 8.257428 24.225677
O 4.271073 6.281226 21.250481
H 4.221750 6.356695 22.242952
H 3.577698 6.926540 20.905915
O 4.195855 6.129130 23.835117
H 3.353060 6.593515 24.127760
H 5.000246 6.681223 24.129201
O 2.014548 7.327357 24.558828
H 2.257258 8.746375 20.573484
O 6.268838 7.572035 20.238339
H 8.410196 5.478477 20.780457
H 6.330904 8.498045 20.545722
H 5.584509 7.069434 20.743219
O 8.388681 6.345481 21.268934
H 7.596893 6.878477 20.948917
O 8.664586 6.488398 23.845535
H 8.641931 6.443716 22.842314
H 7.207454 7.109940 24.170208
H 9.446731 7.022015 24.187164
O 6.402809 7.529733 24.543202
O 10.661500 7.433203 20.558800
H 9.781062 6.949692 20.748483
H 13.096172 5.517441 20.802512
O 13.055527 6.457744 21.084959
H 11.452148 6.938929 20.837755
H 12.833849 5.547059 24.062371
O 12.854431 6.464524 23.686108
H 12.897771 6.416924 22.678786
H 11.540746 7.272949 24.213652
O 10.796394 7.760768 24.682236
H 10.872188 8.730406 24.401950
H 13.874636 6.937809 20.779515
H 1.379204 2.573716 27.760891
H 2.062336 2.191501 29.134778
H 4.047042 3.472970 25.707401
O 2.122919 2.038062 28.168131
O 4.248418 3.364142 27.259779
H 3.440290 2.839594 27.608113
H 4.221833 4.233471 27.709244
H 5.709833 2.711325 27.585726
O 6.524535 2.324422 27.985707
O 8.685893 3.587488 27.316301
H 7.356967 2.815110 27.688187
H 8.750644 3.680444 26.339402
H 8.678635 4.548310 27.588220
H 10.764926 1.828731 29.388576
H 9.981018 2.498151 28.181042
O 10.873795 2.250592 28.497791
O 12.955160 3.640878 27.369388
H 12.905858 3.766495 26.378802
H 12.202151 3.049116 27.646238
H 4.385774 6.189722 28.922708
O 4.339567 5.934853 27.982991
O 2.221036 7.421507 27.206526
H 3.561295 6.512689 27.677880
H 2.183792 7.413757 26.209511
H 1.364916 6.945094 27.515405
H 5.688836 6.820724 27.505431
H 9.449220 6.729075 27.750861
H 8.666452 6.273356 29.025058
O 8.678791 6.179327 28.017182
O 6.484927 7.359849 27.272136
H 7.289935 6.859284 27.591932
H 6.522254 7.490203 25.513507
H 6.394359 8.846767 27.775077
O 10.751913 7.470558 27.239719
H 13.125359 6.360660 29.042126
H 10.784781 7.682792 26.262930
O 12.992798 6.275411 28.076642
H 13.027532 5.260211 27.908404
H 11.604460 6.992771 27.533526
O 2.310630 2.629185 30.884708
O 4.437612 3.877969 31.563866
H 3.565810 3.438514 31.321207
H 4.411633 3.980634 33.245192
H 5.178941 3.318133 31.227723
H 2.298499 1.652719 31.146651
H 1.430614 3.016028 31.099272
O 6.534800 2.554234 30.595390
O 8.532595 4.129897 31.482961
H 7.803278 3.590001 31.130747
H 8.582520 4.131048 33.076511
H 6.486275 2.445321 29.651240
H 8.421912 5.087826 31.136898
H 6.496333 1.661355 30.968938
O 8.697661 3.895656 34.025980
H 9.902944 2.845933 33.413430
H 10.210835 4.358389 30.758751
O 11.012421 4.442349 30.222894
O 13.241175 4.402957 31.595508
H 12.398063 4.111885 31.196358
H 13.119397 4.174658 32.563264
O 10.667670 2.320089 33.070194
H 11.837284 3.297796 33.733227
H 10.765237 1.582398 33.745418
H 10.583219 1.540095 31.563367
H 10.897383 3.861416 29.481949
H 1.384740 7.129778 31.104647
H 4.510009 5.569644 30.998363
O 4.371181 6.480010 30.662829
O 2.169463 7.598549 31.529842
H 2.977846 7.170152 31.209159
H 5.146509 6.995152 31.021027
H 2.015637 7.612710 33.075735
O 8.575158 6.604693 30.568680
O 6.519247 7.869236 31.609139
H 7.812194 7.111760 30.883045
H 9.341699 7.082956 30.908536
H 6.481039 7.824704 32.592190
H 6.426294 8.801874 31.276321
O 12.982689 6.819977 30.607304
O 10.689029 7.890869 31.554889
H 12.129105 7.236564 30.940732
H 13.005085 5.930900 31.007340
H 10.779027 7.799636 32.534337
H 10.736205 8.863098 31.259475
O 4.403587 3.925556 34.263653
O 2.240202 2.596585 34.878142
H 3.024125 3.118029 34.554135
H 4.340288 4.899545 34.552749
H 2.213016 2.591716 35.896381
O 2.254282 2.506804 37.465382
H 3.068051 3.000782 37.783516
H 4.340526 4.873308 38.122596
H 2.252115 1.576505 37.873066
O 4.308317 3.905936 38.378611
H 7.838582 3.439129 34.299506
H 5.660660 3.087610 37.940893
H 5.721347 3.132106 34.654822
O 6.532622 2.615627 34.958327
H 6.482283 2.526937 35.921760
O 6.484927 2.637537 37.616885
O 8.844686 4.024099 38.173079
H 7.959841 3.546783 37.895176
H 8.854070 4.971320 37.843696
H 6.494362 1.674326 37.946822
H 10.635579 1.577939 37.855278
O 12.610098 3.826327 34.114699
H 13.533254 3.533381 38.154903
H 10.027313 2.996763 37.499684
O 10.690947 2.350780 37.212915
O 12.629798 3.843742 38.415406
H 11.983324 3.287106 37.900884
H 13.194102 3.137879 34.619136
O 13.825593 2.183065 35.585229
H 2.154553 8.495152 38.144928
H 2.044352 8.643632 34.306765
O 2.081025 7.681346 34.060504
O 4.232902 6.386337 34.961375
H 4.310131 6.416955 35.987648
H 3.435178 6.948776 34.665129
O 4.449675 6.403017 37.561526
H 3.671662 6.857290 37.977577
H 1.492243 7.079859 38.311338
H 5.317355 6.830498 37.859655
O 2.302159 7.582882 38.563140
H 8.701653 5.400851 34.531359
H 5.499446 7.152676 34.497058
O 6.383990 7.514367 34.196989
H 6.450711 8.452669 34.532246
O 8.645975 6.392146 34.810038
H 7.748221 6.715722 34.510745
O 8.863453 6.590370 37.324519
H 8.760598 6.501179 36.354103
H 7.457334 7.273395 37.944938
H 9.659803 7.094785 37.562745
O 6.618162 7.503942 38.408202
O 10.779338 7.834165 34.192888
H 12.830894 5.386623 34.574195
H 11.008533 8.725163 38.147422
H 11.573096 7.373401 34.518171
H 9.991542 7.247929 34.318956
H 12.786880 5.383375 37.817097
O 12.842714 6.353176 34.887064
O 12.975586 6.302268 37.556262
H 13.011565 6.320328 36.585957
H 11.753248 7.274220 38.095443
O 10.953943 7.752151 38.393240
H 13.737824 6.703483 34.585444
H 1.164687 3.092280 41.778890
H 4.314470 3.925544 39.371968
O 2.060724 2.745468 42.032577
O 4.132426 4.018411 41.032348
H 3.290035 3.628880 41.329590
H 4.275962 4.938635 41.365056
H 2.109212 2.842848 43.021557
H 5.523796 3.136788 41.327374
H 8.796265 3.939669 39.900178
O 6.338991 2.646220 41.680751
O 8.738461 3.835758 40.887827
H 7.137311 3.227798 41.431165
H 8.863764 4.730800 41.269133
H 10.538686 2.688143 42.903524
H 9.846487 2.959908 41.535178
O 10.584463 2.423097 41.960372
O 12.718915 3.715178 41.081279
H 12.632442 3.712786 40.061877
H 11.938999 3.198036 41.451170
H 4.373451 6.338961 43.050538
O 4.455238 6.443288 42.074138
O 2.270385 7.507377 41.233280
H 3.612505 6.883033 41.756004
H 2.208314 7.527985 40.244467
H 1.446361 7.009054 41.451059
H 8.845671 6.373296 42.945251
H 9.685983 6.761845 41.565268
H 5.960952 6.902991 41.449784
H 6.669693 7.288996 39.357283
O 8.960398 6.182997 41.982870
O 6.772704 7.261638 41.040882
H 7.582844 6.790558 41.440807
H 12.793412 6.186582 42.848110
H 10.949588 7.620604 39.958972
O 10.927037 7.685986 40.932658
O 12.961796 6.205847 41.871432
H 11.691763 7.141354 41.246414
H 12.866406 5.266321 41.525480
O 2.055794 2.750777 44.647358
O 4.317680 3.814082 45.510048
H 3.501832 3.380852 45.159109
H 4.392281 4.050595 47.129976
H 1.270607 3.229238 44.986882
H 5.096662 3.283840 45.137719
H 2.106423 1.831851 45.054598
O 6.313433 2.500844 44.414784
O 8.211640 4.048492 45.609850
H 7.472005 3.530470 45.227213
H 8.182608 5.005451 45.268885
H 8.310866 3.814872 47.236870
H 6.332044 2.431853 43.407351
H 6.338576 1.579471 44.794815
H 9.621699 3.748080 44.847293
O 10.490836 3.613936 44.385470
O 12.709843 3.761801 45.862373
H 11.809860 3.535134 45.623814
H 12.650017 3.880151 46.869695
H 10.643459 4.512130 44.009594
H 14.012225 3.137174 45.206876
H 4.167933 5.383502 44.893896
O 4.106593 6.362829 44.668027
O 1.924949 7.713344 45.386751
H 2.687544 7.117876 45.185874
H 4.908231 6.807582 45.051328
H 2.026166 7.967218 46.984291
H 6.249796 8.482618 45.030603
O 8.547681 6.448687 44.703160
O 6.292281 7.571915 45.430917
H 7.728625 6.976351 44.920717
H 6.420021 7.663570 46.412027
H 9.373789 7.010988 44.981451
H 12.585888 5.274649 44.888078
H 10.726044 8.734925 45.258412
O 12.394849 6.121441 44.463826
O 10.676276 7.780534 45.548894
H 11.722972 6.660663 44.988544
H 10.637653 7.812471 46.553833
H 13.872355 6.914711 45.005556
O 4.253203 4.098146 48.097898
O 2.200128 2.607944 48.889769
H 3.004176 3.151401 48.632369
H 4.315300 5.070538 48.352194
H 2.161080 2.626027 49.922637
O 2.063383 2.782811 51.502887
H 2.893830 3.303394 51.818084
H 4.144552 4.953080 51.990700
H 2.114562 1.868545 51.848507
O 4.134858 4.003472 52.313378
H 5.376336 2.834743 51.882365
H 6.447342 1.595973 52.012866
H 5.431807 3.190136 48.759656
O 8.415587 3.768200 48.247905
O 6.210852 2.598459 49.061498
H 7.628621 3.328787 48.619901
H 6.176833 2.511167 50.086719
O 6.296221 2.551330 51.694566
H 7.519285 3.551272 52.140762
H 8.396717 4.878924 52.156998
O 8.414343 3.942736 52.408524
H 9.601843 2.841564 52.121755
H 13.653425 3.331800 48.741813
H 9.810975 3.030972 48.883119
O 10.573213 2.521326 49.232673
O 12.869206 3.868147 48.446177
H 12.024746 3.508861 48.804154
O 10.397156 2.226669 51.916722
H 10.443037 2.262541 50.920982
H 11.948538 3.158783 52.062628
H 13.529781 3.178036 52.055701
H 10.584048 1.696734 48.728624
O 12.724721 3.691225 52.311992
O 2.092934 7.996022 47.977150
O 4.108916 6.633847 48.896806
H 3.334594 7.126385 48.509017
H 4.000088 6.641500 49.878915
O 4.083383 6.593792 51.523502
H 3.317309 7.056309 51.916389
H 4.889967 7.005360 51.919382
H 1.834152 8.686778 52.086511
H 8.420927 5.526594 48.621730
O 6.313692 7.830489 48.028298
H 5.484790 7.430365 48.357237
O 8.448248 6.422987 48.989071
H 7.679530 6.920809 48.634863
H 8.459653 6.426012 50.637260
O 8.485419 6.454659 51.621862
H 7.153486 7.242162 52.177003
H 6.345834 8.807117 48.205125
H 9.299032 6.979792 51.883750
H 14.062357 7.008596 52.074043
H 9.787802 7.312419 48.550190
H 12.890980 5.575230 48.635472
O 10.591876 7.819039 48.236157
H 12.647010 5.390516 51.680435
O 12.802744 6.537950 48.827317
H 11.379724 7.215425 48.505803
H 12.659867 6.363589 50.415714
O 12.625236 6.319623 51.425418
H 11.351937 7.375203 51.985491
H 10.553617 8.775299 51.977567
O 10.606029 7.881589 52.390681
H 13.585874 6.992838 48.374693
H 1.177877 3.415754 55.292508
H 4.182309 4.179575 53.295541
O 1.996771 2.911200 55.577781
O 4.361595 4.154302 54.963458
H 3.495367 3.711177 55.181624
H 4.299104 5.089158 55.200354
H 1.995434 2.844282 56.554015
O 6.329970 2.646522 55.877517
O 8.459861 3.970896 55.037824
H 5.607190 3.281363 55.549852
H 7.140370 3.064989 55.529293
H 8.343993 3.989703 54.058375
H 8.485885 4.899786 55.355569
H 9.676704 2.971653 55.543369
H 10.391713 1.625638 55.316004
H 12.574638 3.777131 53.961954
O 10.418153 2.394564 55.880842
O 12.516160 3.837150 54.931206
H 11.830545 3.239362 55.328804
H 13.888841 3.919410 55.831911
O 1.861603 7.833863 52.618212
H 4.199085 6.427151 56.935709
H 2.111317 7.988248 54.151638
O 4.209288 6.559264 55.961802
O 2.153309 7.970472 55.145327
H 3.476263 7.113948 55.657356
H 1.361959 7.458868 55.460469
O 6.319706 7.588125 52.540355
H 5.637891 7.367454 55.613800
H 6.361283 7.481766 53.515315
O 8.584749 6.459456 56.021871
O 6.440654 7.794393 55.229613
H 7.224717 7.307381 55.546306
H 9.324798 7.018581 55.675754
H 8.577387 6.582168 57.013733
H 10.618627 7.918106 54.023741
H 11.385841 7.424658 55.365599
O 12.590709 6.402263 55.886771
O 10.671713 8.018860 55.005573
H 12.408172 5.495067 55.569026
H 12.627050 6.320135 56.870431
H 14.038717 7.046619 55.358562
O 2.013356 10.204356 3.206874
O 4.192978 11.335852 4.147117
H 2.888967 10.633104 3.467061
H 4.150187 12.264934 3.702788
H 4.469728 11.408585 5.631047
H 5.012755 10.908912 3.734757
H 2.036285 9.236105 3.467671
O 6.344383 10.346268 3.113911
O 8.637213 11.410995 3.774467
H 7.150323 10.813160 3.419638
H 8.757747 11.419793 4.796290
H 9.453004 10.902946 3.477291
H 6.377821 10.450156 2.102447
O 10.801216 10.273595 2.872299
O 12.872887 11.519764 3.804645
H 11.655940 10.770616 3.133783
H 12.913842 11.456069 5.445331
H 12.790198 12.414740 3.368534
H 10.751136 10.379411 1.848136
H 13.681160 11.048955 3.421261
O 4.059919 13.718758 3.040986
O 2.076603 15.092376 3.971963
H 3.265633 14.263505 3.356349
H 2.193751 15.168002 5.509556
H 4.862781 14.177816 3.373333
H 1.158414 14.760888 3.797358
H 2.084250 16.013686 3.578267
H 8.633325 12.971961 3.076828
O 8.580550 13.933644 2.908690
O 6.283214 14.978064 3.806618
H 6.303686 14.941366 4.798884
H 7.176970 14.691047 3.520963
O 6.444335 15.119192 6.332864
H 8.645767 14.034519 1.940870
H 9.874689 14.681888 3.674798
H 13.073983 14.316654 2.088936
O 12.853083 13.903273 2.950128
O 10.722934 15.197951 3.870145
H 12.037085 14.417288 3.271194
H 10.883334 15.221633 5.410453
H 10.615102 16.104678 3.430011
O 4.491382 11.447573 6.620553
H 1.655379 10.410685 7.018466
O 2.445555 9.940901 7.322475
H 3.240520 10.558683 7.077715
O 2.493047 10.183989 9.907055
H 2.402038 10.209720 8.926332
H 3.837542 11.059441 10.327927
H 1.750406 10.712827 10.300497
H 5.308158 11.003098 6.905560
O 4.661591 11.451791 10.679697
H 6.688979 9.182112 10.157639
O 8.750696 11.492044 6.399510
H 5.984089 10.571097 10.113529
O 6.765653 9.995617 7.192789
H 6.785820 9.983806 8.201069
H 7.515708 10.550608 6.907976
O 6.773378 10.140240 9.787471
H 8.059327 11.069624 10.466518
H 8.720316 12.406123 6.757088
H 9.500906 11.032866 6.795014
O 8.772366 11.611238 10.796012
O 12.983466 11.347301 6.445454
O 10.860886 10.144278 7.454638
H 10.771251 10.026771 8.446222
H 12.168349 10.861849 6.771812
O 10.740923 10.083476 10.041158
H 10.016530 10.666186 10.368380
H 11.617525 10.422737 10.427396
H 10.768762 9.238334 7.134931
H 12.809276 12.282952 10.815684
O 2.228688 15.320278 6.488135
H 4.522840 12.986182 7.217736
H 4.614778 13.013419 10.236050
O 4.404173 13.944913 7.442946
H 4.489547 14.017224 8.426052
H 2.942308 14.728830 6.809000
O 4.585212 14.024817 10.028136
H 3.118198 14.705751 10.451834
O 2.309163 15.224044 10.645507
H 5.391386 14.452238 10.370153
H 2.499035 16.212603 10.503092
O 8.801657 14.025600 7.287841
H 7.997272 14.498277 6.952130
H 5.667923 14.641032 6.816320
H 8.880198 14.173357 8.988673
O 8.749089 14.155520 9.968510
H 8.808552 13.215169 10.285979
H 7.456349 14.963843 10.427174
H 9.555030 14.552812 6.907250
O 6.674618 15.383973 10.895924
H 6.394566 16.048938 6.643106
O 10.975406 15.278157 6.427860
H 13.799205 14.426929 10.245138
H 11.690571 14.696651 6.709903
H 13.772403 14.351304 7.174214
H 10.167288 14.850253 10.474498
H 13.100319 12.902662 6.968228
O 12.967292 13.769798 7.389083
H 13.017993 13.760518 8.992774
O 13.069473 13.809027 9.994721
H 11.804831 14.612951 10.361785
O 11.072403 15.267672 10.640686
H 2.156720 10.596165 15.084362
H 4.553064 11.446669 11.662969
O 2.031760 10.589174 14.071554
O 4.284449 11.640645 13.243220
H 3.436863 11.232928 13.577923
H 2.043035 9.626346 13.855327
H 4.366499 12.523991 13.638047
H 6.461598 9.402482 13.787167
H 5.635428 10.826236 13.840808
H 8.711140 11.550195 11.790367
O 6.470722 10.323128 14.178670
O 8.781905 11.470170 13.366129
H 7.918886 11.013764 13.724771
H 9.487894 10.852268 13.722998
H 10.818997 8.998320 13.839091
O 12.850802 11.325848 11.095250
H 13.581882 11.014788 14.008437
H 12.840330 11.348868 12.105785
O 10.705411 9.853043 14.301357
O 12.747999 11.433111 13.712968
H 11.517573 10.388630 14.103472
H 12.813994 12.357975 14.135613
H 2.322113 15.203314 12.227808
O 4.549944 14.095441 14.175123
O 2.421526 15.306901 13.201992
H 3.240121 14.828379 13.441437
H 4.512944 14.059767 15.167926
H 5.409189 14.599513 14.004004
H 6.848964 15.320640 11.869166
O 8.947334 13.977393 14.446376
O 6.788412 15.265804 13.590003
H 8.965582 13.053432 14.086405
H 7.580459 14.757634 13.899936
H 6.814593 16.223570 13.878102
H 11.057991 16.261956 13.635997
O 12.903318 13.913276 14.485222
H 9.745032 14.425001 14.020129
H 11.090703 15.315337 12.389174
H 12.220969 14.438499 13.950307
O 10.993343 15.311239 13.362915
H 13.774891 14.005654 13.989707
O 2.191704 10.337470 16.714374
O 4.439379 11.365620 17.486684
H 3.090090 10.683722 16.967119
H 4.533525 12.315733 17.125660
H 4.349697 11.406174 19.127281
H 2.164683 9.381632 16.986681
H 5.283699 10.870045 17.338839
O 4.444268 11.420757 20.115984
O 6.627234 9.936261 16.792232
O 8.755258 11.242991 17.674594
H 7.375889 10.495290 17.105821
H 8.771070 11.286137 18.663131
H 9.523458 10.725301 17.464906
H 6.579384 10.090948 15.835835
H 10.820138 9.946566 15.870747
O 10.896761 9.994412 16.892033
O 13.100112 11.209608 17.612308
H 11.761957 10.425811 17.072850
H 13.046818 12.207628 17.526638
H 13.158434 11.146154 19.275071
H 14.047789 10.918855 17.430217
O 4.374851 13.867298 16.869479
O 2.132723 13.686519 18.164956
H 3.498348 13.942984 17.375412
H 2.116444 14.256154 18.943693
H 5.049190 14.440066 17.323711
H 1.347539 14.009029 17.624555
H 8.669355 12.865723 17.311076
O 8.568574 13.815656 17.018876
O 6.423079 15.246159 17.802767
H 6.469582 15.256524 18.784710
H 7.217356 14.759864 17.503198
H 8.663756 13.895319 16.036103
H 9.909009 14.644587 17.648383
O 12.956405 13.890980 17.053122
O 10.768762 15.134438 17.887662
H 12.131438 14.291104 17.390706
H 10.803082 15.106598 18.860239
H 12.877034 13.954373 16.063976
H 1.127319 10.291793 23.999809
O 2.228237 10.334216 21.108565
H 2.992004 10.795624 20.676611
O 1.945681 9.795254 23.748892
H 2.118450 9.987542 22.789836
H 3.246254 10.657027 24.352299
O 4.111700 11.152481 24.524749
H 1.399934 10.831478 20.807499
H 5.279417 10.944465 20.371499
H 5.587137 10.516803 23.960908
O 8.906586 11.210873 20.267819
O 6.653518 10.120415 21.015857
H 7.490254 10.566637 20.724156
H 6.643668 10.063831 22.018857
O 6.467508 10.111737 23.709659
H 7.873109 10.960796 24.218141
H 8.838724 12.102474 20.707809
H 9.692723 10.745729 20.641090
O 8.647582 11.463542 24.587145
H 6.478602 9.163010 24.008010
H 10.196734 10.828827 24.086255
O 13.156827 11.209849 20.252192
O 11.031292 9.955002 21.238401
H 10.953787 10.090827 22.227713
H 12.335748 10.725542 20.567223
O 10.964985 10.233161 23.827082
H 11.779014 10.779113 24.099776
O 13.140393 11.580927 24.665390
H 10.841134 8.964997 21.056476
H 13.165640 12.504888 24.305142
H 4.457063 12.723751 24.100829
O 2.156985 14.949139 20.579081
H 4.369242 12.880245 20.881699
O 4.406522 13.772028 21.285337
H 4.445549 13.641325 22.280025
H 2.989204 14.548594 20.844461
H 2.293211 15.832063 24.285525
O 4.488666 13.673081 23.895186
H 3.170699 14.509184 24.425446
O 2.336857 14.958721 24.730779
H 5.273377 14.139672 24.261641
H 2.128922 15.918054 20.712574
H 6.588871 16.018928 20.780679
H 8.690455 13.027882 24.220081
O 6.649008 15.051822 20.481552
O 8.806167 13.723458 21.219893
H 8.019045 14.252598 20.952519
H 5.837365 14.565285 20.774583
H 8.805390 13.866696 22.852233
O 8.755673 13.951421 23.847918
H 7.389576 14.667486 24.347977
O 6.582598 15.128713 24.735323
H 9.603865 14.271640 21.029932
O 10.943626 15.201748 20.523612
H 10.150439 14.787342 24.297716
H 13.210950 12.880004 20.651508
O 13.209758 13.814571 20.984991
H 11.809756 14.735700 20.670072
H 13.122507 13.916470 22.513707
O 13.051743 13.984443 23.527955
H 11.776836 14.814519 24.320103
H 11.032951 16.167589 20.731471
H 13.822171 14.528045 23.780700
O 10.939479 15.257669 24.630812
H 14.059195 14.316293 20.744271
H 4.193771 11.069986 25.523370
O 2.225976 9.916978 28.107452
O 4.402748 11.181828 27.156708
H 3.569180 10.787067 27.505597
H 4.391498 12.113623 27.483542
H 2.235028 9.974225 29.109288
H 2.291090 8.954271 27.897819
H 5.631846 10.314812 27.669623
H 8.593199 11.399666 25.594190
O 6.426086 9.814236 28.005046
O 8.603464 11.218044 27.182974
H 7.781815 10.660100 27.337193
H 9.369330 10.672634 27.533803
H 10.802097 9.004346 27.844178
H 13.698372 10.924700 27.540175
H 12.946555 11.570864 25.622451
O 10.691517 9.968802 28.107230
O 12.766714 11.330609 27.343787
H 11.486467 10.543859 27.767873
H 12.717878 12.230827 27.741828
H 4.502907 13.817222 29.082024
H 2.289592 14.984632 26.286592
O 4.473092 13.771847 28.050098
O 2.298374 15.010544 27.281834
H 3.121148 14.559561 27.641750
H 5.235771 14.282547 27.728030
H 6.645016 16.037368 27.804557
H 8.709170 12.741528 27.951405
O 6.625368 15.114853 27.395821
H 7.363395 14.542387 27.734403
H 6.661139 15.080566 25.716046
O 8.712696 13.663801 28.317749
H 9.453522 14.058201 27.830990
H 10.869025 16.016277 27.588940
H 10.772339 15.160168 26.191224
H 13.728907 14.061877 27.853433
O 12.849298 13.872179 28.258955
H 12.145072 14.434884 27.774800
O 10.780219 15.097197 27.222042
O 1.957278 10.209117 30.779143
O 4.163029 11.423650 31.445667
H 2.803889 10.638166 31.018866
H 4.201698 12.388949 31.140112
H 4.355053 11.405331 33.087206
H 4.990650 11.044978 31.083036
H 2.088226 9.204710 30.960127
O 6.346975 10.239729 30.597662
O 8.506985 11.381890 31.518094
H 7.222747 10.631718 30.890194
H 8.543845 11.256731 32.510952
H 9.389653 11.041242 31.172419
H 6.404779 10.149580 29.623311
O 10.790847 10.397609 30.592175
O 12.941422 11.399847 31.649481
H 11.658947 10.796347 30.927266
H 12.946658 11.217923 33.289801
H 12.915864 12.379548 31.337000
H 10.734391 10.265882 29.578536
H 13.726522 10.994481 31.230881
H 2.071834 16.166082 31.278427
O 4.307404 13.995772 30.686934
O 2.208542 15.218078 31.582153
H 3.523237 14.503941 30.951704
H 2.295621 15.202230 33.201249
H 5.115227 14.416565 31.066910
H 1.416181 14.688938 31.335559
H 8.600042 13.017155 31.206222
O 8.620364 13.974018 30.914909
O 6.444024 15.121060 31.843542
H 6.535473 15.196927 32.815787
H 7.300148 14.799635 31.499419
H 8.670133 14.021985 29.935571
H 9.939026 14.718887 31.516154
O 12.947695 13.965582 30.914354
O 10.771976 15.137511 31.892251
H 12.118166 14.383362 31.245178
H 10.717231 15.135040 32.903563
H 12.883203 13.942623 29.929697
H 1.246578 10.582365 37.984282
H 1.398707 10.577785 34.608995
O 4.320940 11.371887 34.082946
O 2.169691 10.087573 34.966417
H 2.988536 10.605324 34.647452
O 2.027783 10.013816 37.634950
H 2.088299 10.155546 36.651623
H 3.409329 10.711743 38.314441
H 5.149013 10.907888 34.446354
O 4.245323 11.145973 38.658841
O 8.515695 11.251910 34.152214
H 5.634049 10.502401 38.087962
O 6.370304 10.047561 35.089991
H 7.219429 10.485528 34.853206
H 8.640635 12.216425 34.338961
H 6.317165 9.958979 36.080079
O 6.443868 10.115715 37.701558
H 7.874716 10.876733 38.215028
H 9.327131 10.798998 34.543273
H 6.532622 9.195430 38.091066
O 8.621090 11.376225 38.580984
O 12.969106 11.178152 34.287758
H 10.143025 10.789056 38.114561
O 10.662174 10.194775 35.238058
H 12.152641 10.687458 34.643906
H 10.775398 10.225447 36.197170
O 10.991788 10.406889 37.812442
H 11.752004 10.993517 38.066406
O 12.968639 12.072465 38.503459
H 10.637135 9.207060 34.974785
H 4.406517 12.985399 34.654989
O 2.319630 15.186683 34.179312
H 4.278787 12.819323 38.093615
O 4.453786 13.869950 35.077080
H 4.396609 13.746417 36.071379
H 3.158729 14.680020 34.464419
O 4.280058 13.738584 37.715467
H 2.847385 14.539434 38.042356
H 2.132634 16.036645 38.071394
O 2.041045 15.030610 38.281469
H 5.096455 14.256395 38.025067
O 6.561291 15.252004 34.495285
H 8.559398 12.999861 37.962338
H 6.424168 16.203865 34.758170
H 5.732819 14.751367 34.797902
O 8.663342 13.786731 35.075251
H 7.872539 14.404031 34.820567
O 8.577594 13.907612 37.575103
H 8.620364 13.737318 36.606294
H 7.229539 14.702376 38.036981
H 9.501166 14.290441 34.863790
O 6.361646 15.044711 38.462896
H 13.076264 12.735140 34.787872
O 10.914024 15.091533 34.481597
H 13.056357 12.998535 38.258639
O 13.051587 13.709719 35.129391
H 11.764239 14.577217 34.652883
H 13.212402 14.359619 36.568169
O 13.223444 14.972158 37.346962
H 9.964688 14.715874 38.063358
H 11.550752 15.033322 37.952253
H 13.424074 15.859301 36.915561
H 10.962134 15.981146 34.940705
O 10.728377 15.253029 38.449873
H 13.909681 14.099840 34.793358
H 2.247693 10.053828 43.060291
H 4.299089 11.021357 39.641947
O 2.253629 10.000558 42.046375
O 4.526962 11.170198 41.261708
H 3.725599 10.656967 41.654152
H 4.391990 12.136762 41.509078