18432
Timestep: 500000
O 2.272526 3.038621 3.461625
O 4.397336 4.319414 4.162611
H 3.579996 3.817424 3.869489
H 4.315787 4.395024 5.760669
H 5.231547 3.861828 3.846932
H 2.258702 2.081712 3.828060
H 1.337556 3.408938 3.659040
O 6.518902 3.073190 3.250133
O 8.583354 4.313936 4.529668
H 7.807693 3.901582 4.066707
H 8.577620 4.153590 6.176750
H 6.470497 2.953951 2.241153
H 8.607995 5.260679 4.194609
H 6.463524 2.166719 3.657560
H 9.762886 3.428351 4.000908
O 10.643311 3.007813 3.710844
O 12.746559 4.222114 4.736818
H 11.899247 3.828635 4.379787
H 12.760610 4.063806 5.757425
H 10.566443 2.823161 2.718698
H 4.281449 5.803030 3.822643
O 4.283970 6.805263 3.595174
O 2.010046 7.900306 4.417945
H 2.901082 7.460804 4.186468
H 1.880113 7.980530 5.993358
H 5.152592 7.175997 4.025082
H 1.354697 7.310297 3.985493
O 8.710590 6.826326 3.555334
O 6.484549 7.854830 4.499875
H 7.868392 7.207097 3.938270
H 6.441155 7.960206 5.479254
H 9.475455 7.340343 3.880596
H 6.582598 8.785570 4.125359
H 12.837686 5.725745 4.095222
O 12.835155 6.574282 3.585448
O 10.924285 8.194917 4.368331
H 12.077161 7.149140 3.867753
H 10.768275 8.234851 5.352969
O 4.228989 4.350138 6.747196
O 2.062092 3.052794 7.697629
H 2.862514 3.598424 7.452145
H 1.995158 3.171968 8.685767
O 1.968032 3.272760 10.354506
H 2.756390 3.639466 10.823621
H 1.987378 2.296956 10.554307
H 4.136437 5.284442 7.063279
H 4.116703 5.296398 10.906130
H 5.402477 3.666036 10.954674
H 5.620876 3.706059 7.487743
O 8.576690 4.207213 7.165096
O 6.313092 3.168773 7.950288
H 6.135602 3.266347 8.922700
H 7.665010 3.845628 7.450485
O 6.140473 3.240403 10.449574
H 6.138025 2.259076 10.656856
H 7.579050 4.052595 10.871401
H 8.516765 5.354176 10.763227
O 8.447284 4.453339 11.154420
H 9.911199 3.545718 11.016651
H 13.606941 3.472420 7.737273
H 9.836293 3.325186 7.913429
O 10.591032 2.804786 8.284090
O 12.833450 3.980495 7.407374
H 11.978285 3.594937 7.707185
O 10.809292 3.103688 10.957786
H 10.859040 2.877315 10.002029
H 10.558022 1.944674 7.812136
O 1.967370 7.966107 6.962663
H 2.213391 8.819722 11.165942
O 4.191583 6.892668 7.657876
H 3.291532 7.299819 7.423456
H 4.188354 6.736202 8.647434
O 4.327276 6.875682 10.256326
H 3.537274 7.268463 10.730846
H 5.185524 7.345540 10.491566
H 1.959890 8.884568 7.381208
H 8.491349 5.929964 7.313650
H 5.456363 7.808341 7.308408
O 6.349977 8.198434 7.017672
O 8.496567 6.899922 7.522351
H 7.591241 7.306286 7.317396
H 8.686414 6.940165 9.159086
O 8.741172 6.895631 10.148371
H 7.439983 7.606548 10.677006
H 9.576603 7.392661 10.406709
O 6.542820 8.063138 10.931685
O 10.819675 8.107243 6.974234
H 13.726635 7.098181 7.459610
H 12.928193 5.688285 7.584891
H 9.943073 7.607179 7.165899
H 13.041429 5.835072 10.777534
O 12.890791 6.683043 7.805365
H 11.549308 7.484424 7.203784
O 13.064934 6.715824 10.273581
H 12.958516 6.659238 9.279491
H 11.773044 7.477486 10.710096
O 10.959362 8.022371 10.930265
H 11.085255 8.995845 10.714246
H 1.446521 5.267521 15.756230
H 1.463491 1.714940 13.779026
H 1.246035 4.123294 14.688259
O 1.921011 4.508667 15.294215
O 4.075836 4.478318 11.455514
H 4.042795 4.836190 12.373430
O 4.257991 5.091577 13.994935
H 3.428454 4.810126 14.527883
H 5.505857 3.991509 14.203255
O 6.203699 3.289163 14.146301
O 8.510825 4.516534 13.725949
H 7.077337 3.762591 14.050032
H 8.524824 4.519246 12.704556
H 12.147314 3.991694 11.337348
H 13.759232 3.880930 11.248887
O 12.997571 4.441305 11.582417
H 10.841889 1.907621 12.063107
H 10.729634 2.236792 14.069799
H 9.890277 3.597959 14.266761
O 10.682211 3.102067 14.548797
O 12.997726 4.307910 14.241260
H 13.054602 4.363531 13.236194
H 12.131609 3.830870 14.423259
H 1.357253 7.466305 11.275917
O 2.191566 7.873843 11.574117
H 4.377442 5.999829 14.274132
O 4.306757 7.754878 14.974173
O 1.864579 8.006517 14.122111
H 3.356452 7.937617 14.744448
H 1.996976 7.897624 13.178531
H 1.146099 7.379030 14.399888
H 8.468154 5.470048 13.961134
H 5.520601 8.102416 13.956766
H 9.239992 7.367068 14.101962
H 7.149143 8.009497 13.826041
H 6.502216 8.131203 11.902950
O 8.353729 7.071724 14.380831
O 6.319033 8.485178 13.454670
H 8.440517 6.982864 15.362799
H 12.903448 6.898557 15.626324
O 12.930982 6.880957 14.637149
H 10.806864 7.792547 12.529655
O 10.714963 7.831824 13.513043
H 13.023039 5.917013 14.393172
H 11.531279 7.373922 13.894789
O 2.103616 3.046834 17.446812
O 4.269712 4.337246 17.967965
H 3.530667 3.701231 17.775099
H 4.260507 4.531822 19.486266
H 2.036149 3.488536 16.555489
H 5.104575 3.896301 17.666107
H 1.373573 3.357085 18.017055
O 6.348272 3.169560 16.857238
O 8.670399 4.424092 17.813923
H 8.011953 3.906082 17.329246
H 8.527355 4.473645 19.472724
H 8.650872 5.318993 17.336509
H 6.490231 2.227198 17.178918
H 6.300901 3.106478 15.889577
H 13.813268 2.290256 16.590054
H 10.130750 3.685568 17.366050
O 10.942469 3.114846 17.200050
O 12.843575 4.517381 18.116491
H 12.042446 3.951451 17.799562
H 10.945000 3.032619 16.248006
H 12.859589 4.580534 19.109490
H 13.950939 3.460929 17.650653
H 4.523441 5.864790 17.594191
O 4.517412 6.884634 17.489131
O 2.235254 7.956153 18.041628
H 3.114233 7.519374 17.933454
H 2.158380 8.100628 19.554905
H 1.569511 7.340223 17.654803
H 5.380114 7.301256 17.818237
H 4.346488 7.382707 15.871175
O 8.630209 6.852884 16.962735
O 6.864966 8.230202 18.071988
H 7.910339 7.357526 17.453419
H 6.781692 8.203917 19.054338
H 9.455669 7.240176 17.341478
H 12.836549 5.943392 17.550398
O 12.955365 6.934860 17.284142
O 10.749677 8.128462 18.001165
H 12.097360 7.391672 17.540241
H 10.850568 8.239976 18.991597
H 10.793329 9.060036 17.591516
O 4.300615 4.577000 20.532614
H 2.439508 2.097477 20.999326
O 2.337854 2.994438 21.463471
H 3.039301 3.609951 21.129669
O 2.197511 2.944474 24.061375
H 2.274437 2.968100 23.060022
H 3.047272 3.300416 24.448035
H 4.373025 4.928263 24.705499
H 5.715531 3.721489 20.959409
O 8.663116 4.496693 20.453163
O 6.519884 3.201471 21.307464
H 7.842873 3.967376 20.778283
H 6.511153 3.173637 22.298496
O 6.544577 3.071760 23.890023
H 5.712333 3.441564 24.340845
H 7.883270 3.788076 24.492702
H 8.847538 5.038269 24.466983
O 8.782190 4.133784 24.779708
H 6.527891 2.114609 24.164306
H 6.589210 1.775901 20.666670
H 10.058324 3.395480 24.204058
H 9.880927 3.510333 20.889351
O 12.912798 4.275010 20.657824
O 10.681539 3.008689 21.122188
H 10.686343 3.017105 22.130093
H 12.065073 3.730489 20.781833
O 10.813166 2.934133 23.757551
H 12.025037 3.844329 24.455898
O 12.855147 4.255121 24.849057
H 10.980748 2.012879 24.116581
H 13.672135 3.823563 24.452513
H 13.696880 3.755087 20.944174
H 2.069345 9.109207 20.798651
H 4.250113 5.523743 20.792371
H 1.236599 7.110471 24.716366
O 2.074966 8.087217 20.530648
H 2.051389 8.539892 24.531417
O 4.165826 7.008933 21.472317
H 4.132103 6.854291 22.453684
H 3.321262 7.498543 21.196779
O 4.361960 6.435065 24.100472
H 3.525010 6.920234 24.428486
H 5.139656 6.928090 24.552604
H 6.504076 9.091148 21.008936
H 8.819901 5.943369 20.974753
H 5.607589 7.788970 20.950345
O 6.496792 8.149561 20.719473
O 8.772633 6.880796 21.286877
H 7.865396 7.277731 21.126665
O 8.780227 6.635302 23.950417
H 8.835502 6.753522 22.978059
H 9.560072 7.098413 24.331726
H 7.316157 7.321675 24.486805
H 13.988185 7.148956 20.990917
H 10.064575 7.642887 20.810337
O 10.915606 8.158441 20.603601
H 13.152910 5.824219 24.200181
H 13.066845 5.818908 21.076046
O 13.124497 6.784533 21.346889
H 11.649734 7.584292 20.897159
O 13.156732 6.769776 23.924370
H 13.214229 6.806860 22.926075
H 11.784151 7.434716 24.462888
H 10.852737 8.732823 24.722591
O 4.369574 3.953859 24.926378
H 2.362526 2.201443 29.154961
H 4.414445 3.815529 25.931826
O 2.392375 2.209630 28.153772
O 4.507034 3.698722 27.535530
H 3.689219 3.179376 27.812106
H 4.355652 4.611015 27.941193
H 1.679164 2.803481 27.821116
H 5.832105 3.093121 27.995526
O 6.662049 2.667791 28.385080
O 8.841184 3.940222 27.428995
H 7.448456 3.215888 27.998147
H 8.857199 4.005635 26.419397
H 8.917433 4.885540 27.731946
H 10.872213 2.012466 29.095332
H 10.146764 2.984664 28.064710
O 10.954764 2.363120 28.165020
O 12.799458 4.142993 27.441445
H 12.731991 4.154782 26.449266
H 12.036608 3.559951 27.767330
O 2.104169 7.588435 24.927470
H 4.496387 6.243487 29.402487
H 1.586443 7.062593 27.876977
O 4.597246 6.236758 28.433351
O 2.412465 7.602912 27.609193
H 3.809859 6.679151 28.090539
H 2.343180 7.613741 26.644808
H 6.652079 9.045910 28.069024
O 6.493227 7.684250 24.955483
H 6.574436 7.548293 25.915062
O 6.663392 7.376032 27.409173
H 5.956707 6.865794 27.870807
O 9.070654 6.544922 28.257249
H 7.562519 6.990636 27.671334
H 8.832041 6.593456 29.233756
O 13.256383 6.550543 28.476762
H 11.993266 7.385401 27.867913
H 9.938320 7.028334 28.048274
O 11.152050 7.760302 27.488515
O 10.973929 7.787838 24.942596
H 11.136759 7.690151 26.473566
H 13.102749 5.623069 28.138865
O 2.200973 2.530350 30.774227
O 4.212453 3.906594 31.693181
H 3.497042 3.300201 31.327216
H 4.349851 3.984106 33.338330
H 1.401795 3.040248 31.083130
H 5.078595 3.638083 31.347911
O 6.581358 3.063135 30.937989
O 8.789112 4.235506 31.794801
H 7.924804 3.827420 31.464657
H 8.968782 4.391597 33.440388
H 8.720715 5.230372 31.593253
H 6.581874 3.004738 29.924678
H 6.570923 2.113021 31.225595
H 9.877362 2.863100 32.675967
H 10.034974 4.392265 30.590972
O 10.846073 4.449745 30.083361
O 12.685446 4.311910 31.934973
H 11.915313 4.224403 31.330001
H 12.325538 4.068872 32.833995
O 10.615415 2.226422 32.553324
H 10.820347 5.290557 29.599339
H 13.983484 3.673284 31.216203
H 10.698277 1.794760 33.448196
H 4.260946 5.474208 31.415567
O 4.388389 6.413674 31.051677
O 2.237372 7.639132 31.945075
H 3.063452 7.185688 31.617934
H 2.229339 7.638893 33.630578
H 1.456130 7.123714 31.619081
H 5.167728 6.866217 31.411035
O 8.740191 6.734748 30.906755
O 6.556200 7.746057 31.926291
H 7.907911 7.131427 31.281020
H 6.603881 7.751779 32.913392
H 9.553305 7.268505 31.103334
H 6.633275 8.701711 31.578619
H 13.000464 5.807602 31.577363
H 13.181012 6.517714 29.452123
H 10.901297 9.118267 31.158267
O 13.120468 6.725486 31.116657
O 10.960291 8.161898 31.464985
H 12.298365 7.323308 31.203535
H 10.968712 8.311379 32.436632
O 4.421016 3.988743 34.305773
O 2.151948 2.872416 35.107871
H 3.022817 3.328875 34.852154
H 4.353984 4.913642 34.688174
H 2.164920 2.734843 36.093060
O 2.247461 2.603529 37.716586
H 3.055176 3.113427 38.063712
H 4.277358 4.910066 38.339415
H 5.720103 3.408801 37.870519
O 9.220207 4.259806 34.371518
H 8.415875 3.795992 34.674796
H 6.017577 3.368540 34.606921
O 6.879999 2.964828 34.957925
H 6.708543 2.928495 35.941367
O 6.589107 2.991637 37.617205
H 7.985968 3.932271 37.833715
H 8.802853 5.344878 37.775778
O 8.900076 4.307148 37.831585
H 6.656987 2.081820 37.978528
H 10.811358 2.088900 37.649149
O 13.767291 2.404251 35.440745
H 10.182822 3.471031 37.198272
H 11.138309 4.057238 34.696256
O 12.106400 4.204424 34.490448
O 10.982712 2.904488 37.064544
H 12.242573 3.732856 37.849223
H 12.639160 3.490557 34.925052
H 13.842868 3.674434 38.106032
O 12.974066 4.115427 38.408654
H 1.454903 7.550742 38.184882
O 2.165318 7.611363 34.609051
O 4.447549 6.459156 35.296751
H 4.364925 6.316988 36.287455
H 3.627280 6.971229 35.011001
O 4.245407 6.464705 37.867133
H 3.424761 7.023125 38.021612
H 5.004795 7.089759 38.149497
H 2.139483 8.592282 34.836319
H 2.186276 9.017957 38.217809
O 2.252740 8.025410 38.471778
H 5.809706 7.295391 34.992490
O 6.658795 7.687052 34.591687
H 9.132438 5.861899 34.833151
H 6.666079 8.620295 34.833315
O 9.045909 6.828877 35.094274
H 8.074357 7.081963 34.914295
O 8.741534 6.860001 37.630037
H 8.876054 6.843718 36.626828
H 9.560485 7.340724 37.885917
H 7.200595 7.531354 37.999224
O 6.398278 7.964497 38.374198
H 11.082878 8.970037 38.122086
H 13.042927 5.692928 37.805429
H 13.706592 7.112903 34.666824
H 10.185457 7.803752 34.643725
O 10.888382 8.308459 34.104989
H 12.698413 5.778338 34.752062
H 11.682795 7.713574 34.285078
O 12.802816 6.752235 34.991452
O 12.976442 6.647127 37.569971
H 12.905979 6.763798 36.594665
H 11.688891 7.486557 38.047440
O 10.939370 8.018020 38.423998
O 4.297629 3.933284 38.583883
H 1.359686 3.114095 41.633919
H 4.292396 3.950974 39.585072
O 2.242476 2.807510 41.994095
O 4.332788 4.122811 41.129911
H 3.524091 3.601112 41.487522
H 4.191697 5.075997 41.417682
H 2.157982 2.873548 42.963231
H 5.694118 3.423439 41.524271
H 8.740707 4.365086 39.572021
O 6.583631 2.990266 41.682736
O 8.610578 4.270034 40.566657
H 7.299781 3.557025 41.232624
H 8.452605 5.188990 40.953045
H 9.773527 3.463301 41.364605
H 10.482187 3.159142 42.757533
O 10.482652 2.899821 41.819249
O 12.807000 3.944310 40.974559
H 12.845590 4.025637 39.986858
H 11.948220 3.495301 41.196639
H 1.407901 7.265465 41.387649
H 4.301167 6.651985 42.718872
O 4.327865 6.661682 41.720523
O 2.140831 7.927067 41.108561
H 3.446427 7.105715 41.504286
H 2.185134 7.956988 40.103167
H 5.563586 7.529399 41.212092
H 8.374341 6.520903 42.849270
O 8.367316 6.515199 41.894605
H 6.452313 7.906147 39.405966
O 6.399621 8.025708 40.921810
H 9.203366 7.036732 41.551028
H 7.214440 7.560416 41.355049
H 12.922562 6.432019 42.712046
H 12.867493 5.447310 41.413368
O 10.593460 7.671376 40.920391
O 12.890946 6.446419 41.703650
H 10.691613 7.746355 39.950928
H 11.412722 7.178423 41.225198
H 10.658706 9.088525 41.481788
O 2.298159 2.922821 44.653102
O 4.672756 3.946688 45.244041
H 3.827371 3.477516 45.073946
H 4.473636 4.057875 46.831364
H 2.146803 1.972055 44.926457
H 1.482884 3.467509 44.911331
H 5.423626 3.403026 44.919740
H 6.694491 1.786515 44.487812
O 6.784326 2.794969 44.317116
O 8.531230 4.138177 45.596410
H 7.835795 3.541361 45.225366
H 8.357449 5.086994 45.321417
H 8.804816 3.986204 47.155119
H 6.736335 2.923554 43.346943
H 9.950201 4.061195 44.750409
O 10.713309 4.124337 44.128727
O 12.951077 4.057923 45.554800
H 12.041464 3.866912 45.198009
H 12.885057 3.970714 46.546160
H 10.745803 5.069238 43.822064
H 4.438612 5.587082 44.681060
O 4.302573 6.542306 44.408198
O 2.089250 7.800056 45.210841
H 2.852884 7.319345 44.792619
H 2.142717 7.892320 46.861725
H 5.131241 7.007861 44.713824
H 1.246848 7.349068 44.927167
H 6.346929 8.847675 44.995205
O 8.543008 6.569979 44.633335
O 6.324871 7.905134 45.291330
H 7.861573 7.227946 44.858528
H 6.384072 7.911869 46.270294
H 9.462230 6.965657 44.879387
H 13.110807 5.694806 44.834884
O 13.057702 6.561730 44.349333
O 10.907961 7.604056 45.268832
H 12.200161 7.012033 44.665116
H 10.858265 7.646940 46.273734
H 10.856818 8.546567 44.970523
O 4.360178 4.056964 47.849371
O 2.178770 2.903760 48.846410
H 3.047417 3.244557 48.455545
H 2.218335 2.934729 49.839900
O 1.998846 2.970294 51.451030
H 2.805911 3.437362 51.820927
H 4.367523 5.013886 48.112569
H 4.377396 4.902610 51.877498
H 2.104127 1.990480 51.644497
H 5.619523 3.244366 51.819125
H 6.325852 1.797968 51.876024
H 5.837255 3.371193 48.413499
O 8.892275 3.964396 48.134357
O 6.631002 2.890976 48.771273
H 8.040055 3.528738 48.423601
H 6.392492 2.825599 49.738607
O 6.369297 2.709888 51.477568
H 8.523946 4.866241 51.791658
H 7.686811 3.449360 51.825568
O 8.551429 3.888178 52.084179
H 13.880011 3.414791 48.202832
H 9.769860 2.968953 51.710023
H 10.188195 3.101328 48.711972
O 10.914418 2.480886 49.045228
O 12.981660 3.871602 48.173891
H 12.261274 3.294497 48.557766
O 10.598575 2.385750 51.675021
H 10.712948 2.247768 50.695238
H 13.576411 3.401220 51.719962
H 11.945379 3.311686 51.903927
O 12.780912 3.881502 52.106950
O 2.175830 7.806732 47.839433
H 2.120911 8.776987 48.180990
O 4.334937 6.458446 48.726278
H 3.530729 6.917260 48.428625
H 4.318969 6.483777 49.735767
O 4.485595 6.413042 51.283173
H 3.617496 6.815121 51.570343
H 5.189693 7.040171 51.661698
O 2.383634 7.789805 51.999322
H 1.530686 7.333131 51.753271
H 2.251728 8.719591 51.622982
H 8.624784 5.515548 48.564701
O 6.513168 7.785752 47.833044
H 5.732594 7.286773 48.253014
O 8.609183 6.488527 48.829210
H 7.809656 6.927535 48.422509
H 8.520123 6.474169 50.395400
O 8.423004 6.422262 51.405599
H 9.235498 6.935558 51.696427
H 7.146353 7.449944 51.696536
O 6.380249 8.068502 51.980647
H 6.409333 8.725134 48.089908
H 12.704354 5.418969 51.527805
H 10.622028 8.641811 51.746500
H 13.099184 5.436665 48.490929
H 13.854750 6.849761 48.401431
H 10.024591 7.160584 48.118630
O 10.876862 7.649026 47.868319
O 13.004803 6.428741 48.653653
H 11.693799 7.135557 48.140527
H 12.822446 6.444899 50.295363
O 12.773732 6.366237 51.301357
H 11.448676 7.213874 51.916159
O 10.610611 7.720726 52.156094
O 4.240323 4.032163 52.348469
H 1.193293 3.168392 55.251070
H 2.100687 2.919257 56.506065
H 4.029683 4.267530 53.285824
O 2.062201 2.798093 55.514650
O 4.195907 4.245007 54.940857
H 3.386895 3.749359 55.279247
H 4.299468 5.158635 55.296775
H 5.506079 3.391481 55.101124
O 6.340213 2.831309 55.287219
O 8.470479 4.060176 54.605690
H 7.178124 3.263904 54.966358
H 8.533451 4.082777 53.618371
H 8.589915 4.970562 54.931684
H 9.617310 3.160560 55.251835
H 10.367039 1.792732 55.414395
H 12.556609 3.909670 53.842471
O 10.329999 2.672911 55.749890
O 12.482943 3.879756 54.823947
H 11.647874 3.413951 55.162937
H 13.962511 3.792630 55.332705
H 1.551196 7.360065 54.915138
H 2.342333 8.010093 53.647748
O 4.367420 6.743104 55.667218
O 2.284970 8.010271 54.654070
H 3.539397 7.212503 55.305020
H 4.349784 6.823530 56.666659
H 9.514457 6.936243 55.257241
O 8.647669 6.512547 55.557843
O 6.470756 7.657072 54.542839
H 7.297869 7.187321 54.893897
H 6.444513 8.010271 52.992648
H 5.631771 7.194271 54.958659
H 8.654282 6.712051 56.483950
H 13.988495 7.183876 54.910715
H 10.861003 7.843268 53.859508
O 12.749710 6.295275 55.672678
H 11.631653 7.378810 55.145464
O 10.939938 8.012536 54.832193
H 12.595870 5.385992 55.353455
H 12.802971 6.242897 56.667205
O 2.250224 10.331161 3.577913
O 4.474318 11.260649 4.300555
H 3.169890 10.578865 3.913403
H 4.263797 11.402620 5.975601
H 4.525264 12.246520 4.077322
H 5.354770 10.870973 4.004359
H 2.085623 9.351726 3.908450
O 6.743619 10.295698 3.418323
O 8.866032 11.653901 4.067472
H 7.631329 10.743843 3.621182
H 8.905397 11.565154 5.063063
H 9.726053 11.214994 3.759820
H 6.638751 10.202958 2.425759
O 8.747991 11.640729 6.643118
O 10.994541 10.613792 3.259416
O 13.011312 11.949108 4.081063
H 11.723451 11.265775 3.511731
H 12.913831 12.043040 5.797740
H 13.083066 12.861908 3.635462
H 10.945930 10.536906 2.293277
H 13.838684 11.418832 3.829513
H 10.922942 9.128995 3.989168
O 4.484583 13.895103 3.689543
O 2.267468 15.237631 4.171140
H 3.710699 14.497140 3.889289
H 2.362578 15.252770 5.711627
H 5.308049 14.406247 3.935436
H 2.195719 16.228807 3.932487
H 1.373356 14.821969 4.011463
H 8.879154 13.164208 3.617524
O 8.781208 14.123258 3.344016
O 6.656057 15.267312 4.351277
H 6.841978 15.408270 5.338859
H 7.386723 14.784420 3.941885
H 8.804713 14.095245 2.355652
H 10.028000 15.007747 3.699399
O 13.056875 14.462869 3.374464
O 10.826339 15.553997 3.980715
H 12.197062 14.912325 3.653317
H 10.932602 15.553997 5.589524
H 10.674978 16.464949 3.658691
H 13.178481 14.794314 2.461227
O 10.969332 15.648167 6.573065
H 1.277863 10.880092 7.502197
O 4.254845 11.608723 6.945888
O 2.070327 10.442914 7.925989
H 2.899858 10.895350 7.558686
O 2.328271 10.284970 10.581119
H 2.154144 10.264467 9.593472
H 3.680943 11.162604 10.848466
H 5.156285 11.272093 7.227188
H 1.533954 10.800882 10.904710
O 4.476018 11.736509 11.072621
H 6.391872 9.154624 7.301020
H 5.865208 11.178399 10.515811
O 6.544732 10.705757 7.550189
H 6.639629 10.904708 8.529869
H 7.395350 11.135784 7.115400
O 6.698572 10.762081 10.166828
H 7.992012 11.381938 10.865339
H 8.720767 12.532966 7.054793
H 9.560640 11.213743 6.994880
H 6.606464 9.777044 10.356745
O 12.864910 12.062828 6.777010
H 10.874486 9.600385 7.443081
H 10.125791 11.003170 10.657675
O 10.912972 10.583097 7.711226
H 11.052038 10.591143 8.716128
H 12.060630 11.502513 7.040929
O 10.969074 10.596925 10.344350
H 11.682485 11.259159 10.672637
O 13.039208 11.908519 11.172440
O 2.385055 15.245737 6.702338
H 4.606984 13.266961 7.290180
H 4.278634 13.281742 10.536015
O 4.693187 14.226369 7.597483
H 4.453303 14.222257 8.586659
H 3.213299 14.790916 7.006948
O 4.242028 14.214210 10.170377
H 2.809145 14.805221 10.609459
O 1.979154 15.299974 10.910607
H 5.140116 14.591787 10.414572
H 1.994279 16.266475 10.601377
O 6.857786 15.416972 6.956198
H 5.974131 14.965192 7.225129
O 9.045806 14.088510 7.700960
H 8.175195 14.555072 7.476281
H 9.021630 14.173324 9.324814
O 8.940990 14.275660 10.335613
H 8.872955 13.346469 10.737344
H 7.343278 14.910477 10.536015
O 6.474889 15.338834 10.777043
H 6.928714 16.309627 7.372738
H 13.190362 12.856842 10.891058
H 9.790420 14.624866 7.280401
H 13.802936 14.943735 7.493323
H 11.800836 15.197996 6.956689
H 10.194807 15.311358 10.793533
H 12.940074 13.506381 7.411737
O 12.900865 14.455836 7.738583
H 12.921683 14.393015 9.400169
O 13.088439 14.406247 10.376840
H 11.780018 15.333888 10.765302
O 10.994490 15.886037 11.034124
H 13.957086 14.867087 10.633867
H 1.877902 9.652536 14.385909
H 4.470780 11.745151 12.076813
O 2.040401 10.582978 14.701310
O 4.218823 11.937247 13.726168
H 3.456366 11.428845 14.125497
H 2.071231 10.526535 15.688301
O 8.813495 11.826805 11.256477
H 5.747048 11.310595 14.191842
H 8.789990 11.710046 12.224958
O 6.591276 10.873894 14.469401
O 8.911854 11.901129 13.983359
H 8.025229 11.461984 14.155311
H 9.616071 11.192405 14.108405
H 6.485995 9.970332 14.097593
H 13.703234 11.297185 14.058441
H 12.974531 11.883546 12.161670
O 10.813631 10.228527 14.335454
O 12.841870 11.724410 13.758494
H 11.591979 10.809941 14.093771
H 12.913418 12.713798 14.017760
H 10.856870 9.283900 13.982212
H 4.313850 12.868643 14.028081
H 4.557030 14.478603 15.468569
H 2.277144 15.451780 12.512182
O 4.423884 14.440816 14.497304
O 2.242687 15.590234 13.508347
H 3.055806 15.212896 13.906256
H 5.245067 14.750506 14.055984
H 6.549226 16.381625 13.637980
H 6.517921 15.344854 11.790518
O 8.856475 14.434737 14.503693
O 6.609305 15.390569 13.374728
H 8.975136 13.460726 14.225479
H 7.497480 15.016211 13.793278
H 9.641384 14.948384 14.184470
O 13.128371 14.196270 14.560428
H 11.000224 15.669743 12.764786
O 11.126685 15.670220 13.726768
H 12.434538 14.784837 14.129319
O 2.306275 10.544714 17.253236
O 4.602645 11.748668 17.880760
H 3.192310 10.926939 17.486237
H 4.579692 11.780257 19.525364
H 4.628686 12.702771 17.573551
H 2.335229 9.562597 17.460354
H 5.403815 11.285920 17.535818
O 6.818628 10.577316 17.043333
O 8.887316 11.845699 17.970750
H 7.579825 11.089950 17.457132
H 8.959897 11.779959 18.947312
H 9.614831 11.308807 17.517471
H 6.797809 10.692228 16.031114
H 6.863107 9.163326 17.645684
O 10.892721 10.449709 16.915338
O 13.000722 11.707185 18.095141
H 11.742358 10.886708 17.189074
H 13.040706 11.807435 19.694586
H 12.932222 12.596621 17.665943
H 10.957450 10.319360 15.953956
H 13.840957 11.273881 17.740861
O 4.421967 14.250865 17.124804
O 2.177364 15.418820 17.901128
H 3.546728 14.643104 17.409079
H 2.211769 15.407794 18.904064
H 5.188283 14.830313 17.476954
H 1.261073 15.149599 17.619091
H 8.944399 13.432356 17.387019
O 8.849243 14.406366 17.168379
O 6.597269 15.538917 17.903094
H 6.599542 15.634697 18.889048
H 7.467828 15.072117 17.608935
H 8.867272 14.471094 16.156979
H 10.109363 15.187089 17.984292
O 13.065502 14.302659 17.164775
O 10.977339 15.581652 18.290737
H 12.238854 14.738646 17.581741
H 10.954299 15.519368 19.326164
H 13.029496 14.492669 16.176528
O 4.480166 11.848262 20.524860
O 2.254409 10.638706 21.334603
H 3.117322 11.095016 21.088223
O 2.053744 10.070463 23.949379
H 2.084177 10.282586 22.968722
H 3.411159 10.862689 24.586678
H 5.249830 11.385276 20.956133
H 1.329505 10.612660 24.321624
H 4.603895 12.738056 24.287714
H 1.566680 11.197292 20.876355
O 4.267811 11.267742 24.888591
O 8.834107 11.768694 20.575261
H 5.563509 10.604494 24.362141
O 6.596494 10.655156 21.512124
H 7.446338 11.101691 21.177558
H 6.689842 10.548051 22.523415
O 6.499840 10.287354 24.091408
H 7.803973 11.229120 24.630144
H 8.838808 12.731321 20.822568
H 9.682762 11.325078 20.889624
H 6.508157 9.317694 24.337842
O 13.027688 11.820726 20.701945
H 10.946499 9.529399 21.203714
H 9.960585 10.872165 24.397307
O 10.912765 10.530588 21.513162
H 10.859918 10.467828 22.514296
H 12.203881 11.315185 21.011394
O 10.734645 10.306307 24.194557
H 11.494550 10.872821 24.494013
H 12.789385 12.698361 24.603278
O 2.549542 15.431932 20.383541
H 2.458137 16.355341 20.736619
H 4.623262 13.398144 21.004186
O 4.584151 14.266421 21.511906
H 4.570389 13.986353 22.478694
H 3.362310 14.992847 20.745902
H 2.492970 15.991830 24.290717
O 4.621836 13.735370 24.068310
H 3.343692 14.636667 24.434930
O 2.493477 15.082845 24.716147
H 1.206866 14.765764 21.113451
H 5.452679 14.151271 24.419586
O 6.609254 15.541480 20.456986
H 8.659654 13.185783 24.262322
O 8.624578 14.254203 21.283164
H 7.831508 14.776493 20.972842
H 5.843744 15.025926 20.923916
H 8.529990 14.077246 22.952449
O 8.744272 14.077126 23.918418
H 9.465846 14.755215 21.011940
H 7.372258 14.952675 24.582965
H 6.603106 16.459465 20.887330
O 6.494932 15.308855 24.826942
H 13.926969 14.743414 21.222552
H 9.954541 14.948384 24.340899
O 10.960240 15.514123 20.855714
H 13.044167 13.355171 21.208300
O 13.130748 14.275123 21.587917
H 11.797014 15.021456 21.128358
H 12.964251 14.274766 23.072035
O 12.932687 14.236919 24.064105
H 11.609285 15.070627 24.393102
O 10.727671 15.473236 24.686933
H 13.762590 14.709560 24.327740
H 11.071049 16.458929 21.047597
H 2.384083 10.038695 29.352796
H 4.264784 11.312622 25.866245
O 2.517452 10.085364 28.358487
O 4.592235 11.378958 27.457062
H 3.830372 10.913887 27.898710
H 4.596006 12.356664 27.677176
H 1.157045 10.925032 27.950258
H 2.471113 9.135074 28.058868
O 8.592756 11.729476 24.942104
H 5.834688 10.413828 28.083495
H 8.615847 11.592273 25.947825
O 6.665614 9.990954 28.395182
O 8.661669 11.432302 27.455752
H 7.942420 10.853748 27.882383
H 9.549172 11.003110 27.589753
H 11.020939 9.359773 27.689572
O 12.732250 11.726913 24.891976
H 12.905153 11.703132 25.847406
O 10.937458 10.338730 27.917167
O 13.163655 11.626365 27.507845
H 11.778520 10.831577 27.655662
H 13.003563 12.494523 27.963745
H 4.378780 13.719099 29.273236
H 2.525257 15.279173 26.254980
O 4.450338 13.774767 28.282913
O 2.525128 15.345271 27.268619
H 3.272113 14.814042 27.683347
H 5.232105 14.367148 28.140393
H 9.376631 14.557099 27.858193
H 8.642917 13.046613 27.880909
O 8.537481 14.014902 28.135097
O 6.422145 15.176241 27.433036
H 7.287589 14.727738 27.750894
H 6.517507 16.136245 27.725284
H 6.487338 15.329775 25.834956
H 10.663665 16.283998 27.557427
O 10.705819 15.292405 27.334910
H 13.670120 14.287103 27.630380
O 12.829782 14.071822 28.132039
H 12.057375 14.569436 27.755262
H 10.627039 15.240551 26.359222
O 2.113080 10.147230 30.946234
O 4.224583 11.387481 31.723159
H 2.918052 10.664334 31.295272
H 4.332431 11.240206 33.365032
H 4.320276 12.366499 31.550661
H 5.093163 10.925211 31.528546
H 2.148766 9.267509 31.388264
O 6.539669 10.255705 31.084058
O 8.752899 11.418117 31.572230
H 7.423298 10.681261 31.316022
H 8.795414 11.400117 32.550921
H 9.640454 11.074573 31.218169
H 6.581668 10.168389 30.111810
O 10.917311 10.567422 30.506607
O 13.089730 11.845342 31.357740
H 11.739104 11.033865 30.839481
H 13.071185 11.786932 32.889529
H 13.196510 12.813630 31.101477
H 11.054104 10.406378 29.521581
O 13.057547 11.877288 33.900820
H 13.927796 11.357025 31.170553
O 4.399774 13.862620 30.960814
O 2.216233 15.223088 31.634698
H 3.633272 14.423293 31.236352
H 2.338107 14.985635 33.233215
H 2.287889 16.131239 31.183167
H 5.228732 14.397664 31.223465
H 1.435528 14.782393 31.164929
H 8.741947 13.028733 31.111961
O 8.807089 13.985101 30.755989
O 6.620567 15.196208 31.626781
H 6.549174 15.242518 32.620598
H 7.446957 14.726070 31.329891
H 8.760803 13.872752 29.785652
H 10.163140 15.092918 31.186225
O 13.111789 14.389201 30.658956
O 10.924905 15.546546 31.625142
H 12.315722 14.817439 31.108630
H 10.817661 15.408628 32.615083
H 12.876275 14.390631 29.689055
H 1.295112 11.058301 37.964167
O 4.410060 11.207723 34.373866
O 2.262307 10.202779 35.220795
H 3.142475 10.553177 34.842871
O 2.102185 10.528740 37.735971
H 2.222514 10.485708 36.703766
H 3.435898 11.237702 38.368137
H 5.298647 10.824484 34.654155
H 4.530332 12.717016 34.885900
H 1.489047 10.635666 34.738793
H 5.713521 10.916449 38.097513
O 8.745098 11.493453 34.184440
O 6.647688 10.252129 35.223962
H 7.485030 10.689844 34.875252
H 8.719062 12.456259 34.430437
H 6.622892 10.441901 36.213847
O 6.513478 10.455967 37.764366
H 7.990618 10.971283 38.094346
H 9.547984 11.092096 34.586281
H 6.431495 9.492982 38.032970
O 8.789164 11.499413 38.364096
H 10.314346 10.974740 38.007087
H 11.038503 9.686509 34.840305
O 11.114907 10.639659 35.076364
H 12.283952 11.342840 34.286061
H 11.156028 10.691334 36.073894
O 11.193842 10.637871 37.644562
H 11.922132 11.042328 38.158180
H 4.357987 13.184591 38.299007
O 2.377735 15.026760 34.227032
O 4.455163 13.696927 35.100772
H 4.440957 13.750628 36.105510
H 3.166842 14.498868 34.511471
O 4.452064 14.067054 37.803682
H 3.234170 15.027118 38.059781
H 2.394658 16.382221 37.972740
H 5.339995 14.366135 38.129075
O 2.348955 15.440753 38.266298
H 1.117129 14.089643 34.605393
H 5.623862 14.652223 34.539866
H 8.650614 13.092268 37.698075
O 6.415067 15.170042 34.129944
O 8.616674 14.021220 34.843363
H 7.781347 14.463584 34.523375
O 8.711882 14.035823 37.367167
H 8.587332 14.044822 36.353855
H 7.449644 14.702408 38.304304
H 9.430976 14.498868 34.483950
H 6.393164 16.097206 34.440539
H 10.705871 16.040406 34.635972
O 10.920256 15.258015 38.153538
O 10.735626 15.163188 34.176031
H 13.106106 13.392720 34.351041
O 13.157301 14.374122 34.555156
H 11.700669 14.832876 34.373920
H 13.213971 15.127248 35.999467
O 13.178791 15.481461 36.920331
H 10.091954 14.811181 37.857468
H 11.712396 15.126652 37.581493
H 13.882387 16.148046 37.042374
H 14.000635 14.684170 34.204153
H 1.768803 9.436838 41.717410
H 1.785473 10.273824 43.029795
O 4.309619 11.552757 38.760531
O 1.606588 10.370677 42.052578
H 4.205557 11.516340 39.742663
O 4.020783 11.529691 41.326982
H 3.191654 11.040480 41.632007
H 4.050827 12.469788 41.538742
H 6.320066 9.507525 41.385519
H 5.459266 10.846537 41.606944