18432
Timestep: 3000000
O 3.637485 7.208856 6.092058
H 3.211103 6.739966 5.325188
H 4.647181 7.148441 5.971199
H 3.649195 8.735302 5.202812
O 3.927529 9.506541 4.671297
H 3.179052 6.316424 7.544221
H 4.879323 9.729023 5.036096
H 3.485228 9.016756 7.697354
O 5.327692 8.574579 7.883037
O 2.590501 9.254125 8.072747
H 5.846167 8.798284 7.078559
H 2.851294 11.180873 5.166326
H 2.184916 4.628416 7.141591
H 8.802560 6.605672 4.185819
H 6.487052 5.991847 5.834053
O 6.406313 6.914866 5.497140
H 9.586676 8.521073 4.754011
O 6.566437 9.744195 5.687627
H 7.211996 9.073097 5.328663
H 8.948217 6.266423 7.626305
O 9.262160 6.892469 6.962546
H 8.439258 7.104495 6.451382
H 6.327358 6.773520 4.536878
H 7.566157 10.337942 7.241368
H 6.906403 10.629371 5.405466
H 9.797157 9.812821 8.171824
O 8.614560 8.252426 4.468524
O 8.085393 10.404132 8.116474
H 14.206536 7.048349 4.100444
H 10.288279 8.367833 7.963700
H 10.753017 10.168407 4.730377
H 10.786121 6.466866 6.078257
O 10.956285 9.288375 5.171496
O 11.664953 6.410404 5.586516
O 13.592979 7.216809 7.206603
H 12.852639 7.114793 6.516449
H 10.973726 9.424572 6.159971
H 11.482092 6.688162 4.649971
O 10.627618 9.288659 7.954182
H 13.136294 7.134850 8.029615
O 13.513085 8.623779 4.104226
H 12.995578 10.732926 7.153393
H 12.558756 8.881623 4.379321
H 12.573381 4.910813 5.571081
H 14.131336 8.978849 4.871967
O 2.842623 5.828462 8.313562
H 2.621994 10.140739 8.460754
H 2.235294 8.200496 11.661981
H 5.571297 9.266610 8.544269
O 5.308186 4.825716 10.906588
O 3.835777 10.810025 11.655588
O 5.387427 10.676326 9.584548
H 2.687396 6.482333 9.055103
O 2.961525 7.605427 10.304120
H 2.844224 8.308583 9.635896
H 3.979132 7.601859 10.527775
H 2.867248 10.686392 11.335378
H 4.851061 10.585788 10.442636
O 5.398351 7.546582 11.137853
H 5.365514 8.013016 11.983611
H 5.564528 5.742451 11.100459
H 3.596091 4.939247 11.133439
O 2.599992 4.943185 11.281138
H 4.054440 10.211568 12.417628
H 2.310352 5.849547 11.010094
H 4.102500 4.732198 8.402313
H 6.323746 7.065450 8.464199
H 6.124091 5.468154 8.590599
O 6.799369 6.175558 8.621366
H 6.208175 7.938678 10.716369
H 7.830790 9.192588 9.502504
O 7.612601 8.689132 10.296154
H 8.490198 8.311444 10.700438
O 8.820792 5.290367 10.308281
H 9.498580 6.588344 11.183518
H 7.439770 9.937951 11.519660
H 7.988503 5.608936 9.780196
O 9.534500 7.495268 11.633719
H 9.423627 4.830168 9.637824
O 6.961790 10.538569 12.189102
O 10.059962 10.225639 10.735853
H 10.014506 10.201449 12.439191
H 10.083283 11.059716 10.195794
O 12.775463 11.018980 12.088183
O 10.597676 4.805298 8.374636
H 10.515263 7.732802 11.621745
H 12.504604 9.678811 8.674398
H 10.390259 9.491068 10.158755
H 13.938593 9.474763 9.322890
O 12.826008 5.330856 11.268657
H 12.319223 6.564255 10.130899
O 11.952808 7.110513 9.386770
H 11.322749 6.490080 8.933915
H 12.911238 8.354863 11.353085
O 13.439812 10.043350 8.650921
H 12.115560 5.514625 11.973109
H 12.266800 10.195442 11.895834
O 12.117784 8.408348 11.955908
H 13.919620 4.869794 8.802918
H 2.051511 7.988780 13.184082
H 2.176714 4.643911 12.926787
O 4.780634 9.711690 16.260502
H 2.503388 8.220242 15.231934
O 4.799088 5.076475 16.257204
O 2.789746 7.404820 14.697303
H 2.423316 6.680932 15.240711
H 4.995384 5.634158 15.492120
H 4.862415 9.432277 14.455738
H 4.300160 6.779112 14.097525
O 5.163112 6.253079 13.962916
O 5.013571 9.227544 13.515657
H 5.965573 6.863858 13.816028
H 5.841033 9.737387 13.216706
H 5.761658 4.876502 16.596441
H 3.942070 10.058686 16.721968
O 9.234787 6.050923 16.341683
H 10.042669 5.314076 13.363645
H 9.405148 6.843663 15.779046
H 7.990973 9.564996 15.882450
O 7.493527 7.515990 13.594251
H 8.307337 7.574487 13.024002
H 8.059651 5.942209 13.816028
O 7.770610 9.866032 14.982960
H 7.536759 8.384649 14.123756
H 8.650876 10.091571 14.530983
O 8.459269 5.026041 13.755599
O 9.886340 10.154968 13.426611
H 10.258338 9.270057 13.723025
H 7.957128 5.131103 16.630182
H 12.401933 7.947000 12.789388
O 13.971845 10.364133 14.255067
H 10.931926 7.817585 15.539763
O 13.488084 7.438042 14.149735
H 11.551610 4.953344 13.956726
O 11.046258 5.530588 13.294640
H 13.580726 9.557001 14.588571
H 13.395196 10.629582 13.447312
O 10.368321 7.860967 14.718816
H 10.557309 7.034157 14.218434
H 12.879715 6.719761 14.439552
H 11.014735 11.033525 14.421489
H 14.137018 7.018890 13.556400
H 13.589174 10.389060 16.707051
O 4.403824 7.389532 17.653981
O 4.125445 7.459464 20.385533
O 2.922033 9.861378 18.556313
H 3.894282 9.757328 18.832279
H 3.812412 7.049392 19.579655
H 2.507025 9.014184 18.485583
H 2.683275 5.306540 18.082822
O 5.363153 9.656129 19.557178
H 5.117656 8.726675 19.824569
H 4.298060 6.558147 17.152229
H 4.560864 8.114226 17.041518
H 4.580277 10.359707 20.798290
H 5.843119 6.930902 18.593047
O 3.067284 4.797125 18.835272
H 2.103977 10.852185 19.427846
H 5.522525 10.050834 16.806802
H 2.300307 4.704799 19.410696
H 7.671003 4.645862 20.228802
H 6.233580 9.931891 20.004741
O 6.777526 6.785014 18.976883
H 7.286455 7.517228 18.554334
H 7.536067 9.832330 17.811067
H 9.006667 9.297028 17.867742
H 8.963336 5.397848 19.686358
H 9.526941 7.406554 19.450272
H 7.272472 5.272802 18.011737
H 9.401492 6.407863 17.272885
O 8.048485 9.042805 17.524852
O 7.653561 10.427636 20.730097
O 9.778975 6.648379 18.879617
H 6.646237 6.725590 20.859023
H 8.178529 11.120110 20.254729
O 7.304341 4.668404 17.225749
H 8.869707 9.163240 20.888401
H 11.184553 10.995686 18.013361
O 11.196460 10.664943 20.873636
H 12.891425 10.134995 20.342050
O 12.234685 6.406414 20.093330
H 10.706573 9.514757 19.462602
H 10.723273 6.465960 19.161571
H 12.200692 5.495990 20.440584
H 11.087316 8.686603 18.142541
O 10.638784 9.500781 18.494767
H 13.536307 6.964177 18.949839
H 11.987938 6.627658 17.149692
O 12.109829 4.958618 17.412365
O 13.867246 9.843223 20.305873
H 12.579014 8.160697 16.875299
O 13.632111 9.424077 16.779708
H 12.866968 4.623377 17.954302
H 13.898819 8.910397 19.890935
H 12.282265 6.969984 20.903318
O 11.738226 7.604884 16.981697
H 4.487003 10.894292 24.557801
H 3.802836 6.943877 21.128444
O 4.162532 10.722807 21.640953
H 2.617409 9.628915 21.623702
O 2.967360 6.255261 22.604018
H 3.319476 6.435262 23.507110
O 5.480192 8.841192 22.981867
H 5.170380 9.668382 22.581439
H 4.639222 7.749708 24.231959
O 4.421863 6.918950 24.668360
H 2.435298 10.821145 24.780847
H 4.236531 5.082340 22.372093
H 2.715648 9.390438 25.157478
H 1.954970 6.088208 22.620914
H 2.089630 8.206382 21.144173
O 9.280441 8.283371 21.002816
H 6.100982 6.154921 24.409899
H 8.521771 7.726678 21.315161
H 6.215502 9.053535 23.640705
H 6.358416 7.726299 21.951421
O 6.976514 6.958828 21.751664
H 9.642310 4.916019 21.804279
H 7.052603 6.144571 23.177362
O 7.017573 5.874664 24.135556
H 9.770773 6.604818 23.314203
H 8.230309 8.254202 24.348201
O 7.465808 8.696853 24.809768
O 10.031156 7.552521 23.555769
H 7.646990 10.755165 21.674338
O 9.836486 10.378257 24.769025
H 8.351508 10.711003 23.846297
H 10.079231 8.006671 22.714881
O 9.905658 4.986522 22.763286
H 13.965174 7.821975 22.007943
H 13.548807 5.092157 22.614470
H 11.370231 10.460732 21.835128
H 11.363214 10.214572 23.941380
O 12.140611 10.219157 23.355149
H 12.095896 5.081578 23.225106
O 13.038811 5.418211 23.352612
H 12.993849 7.119615 22.928388
O 13.045827 7.935037 22.405225
H 12.445166 9.304696 23.159400
H 11.446419 7.664788 24.508686
H 13.511059 5.460334 25.204208
H 5.448664 4.699831 26.651723
H 2.458318 4.736268 28.437765
O 2.943634 10.288457 25.450949
H 2.579680 5.735057 25.844171
H 2.716567 10.006671 28.537263
O 3.072897 10.819669 28.089954
H 2.772132 10.691029 27.166718
H 4.320160 7.113054 25.619908
O 3.812185 7.143767 27.129983
H 3.632218 6.419352 27.785422
H 3.230699 7.828826 27.574452
O 5.600670 9.754951 28.171947
H 4.668877 10.132097 28.089700
O 3.195248 5.277181 28.890910
H 5.821596 7.930478 27.236382
H 5.546577 9.245657 28.993351
O 2.590782 8.591469 29.195695
H 9.690039 9.577607 25.341049
H 7.159425 8.168554 25.576019
H 8.325668 5.721508 25.392194
O 6.435415 4.855711 26.838491
H 6.590929 5.854095 26.870051
O 7.525988 11.000377 26.471450
H 6.726768 10.792213 26.981979
H 7.559388 10.205033 25.898106
O 9.177127 5.763747 25.891865
H 9.347192 6.720873 26.143578
O 8.389701 7.761739 29.032521
O 6.642694 7.423312 27.004457
H 7.348710 7.577380 27.740924
H 9.533512 5.052092 27.398186
H 9.999584 9.066652 27.343693
H 9.354949 7.763889 28.761425
O 9.884116 8.455024 26.550957
H 9.986689 10.223531 29.259829
O 9.866131 4.726044 28.281643
H 9.958032 11.095763 25.448006
H 13.463578 9.173843 25.724327
H 13.831722 5.320005 29.189962
H 11.829929 7.291052 28.690341
H 10.595799 6.162831 28.815056
O 10.512101 10.231963 28.413360
O 13.437984 5.785159 26.126378
H 13.975106 10.619569 26.201572
H 13.664276 8.814152 29.179307
H 10.632806 4.690562 25.413149
H 10.795657 8.225470 26.220193
H 11.432337 9.848799 28.659593
O 14.202089 9.634680 26.254442
O 12.968997 8.820038 28.459075
H 12.778032 4.966452 27.313758
O 11.019083 7.026368 29.164440
O 12.079591 7.994782 25.220241
H 13.485219 9.236049 27.720730
H 12.630992 7.213879 25.556941
H 5.365771 7.509650 30.734590
O 5.064640 8.401128 30.461263
H 3.683559 8.854857 32.467458
H 3.042679 5.885815 31.826785
O 2.699753 8.870398 32.400535
O 3.553407 5.116172 33.277192
H 5.155325 10.679172 33.078653
O 5.343009 10.648975 32.128120
O 2.400994 6.326427 31.199760
H 3.321502 8.399959 29.862753
H 2.538014 8.000869 31.938917
H 5.337060 9.045835 31.154095
H 2.457636 10.420364 31.638748
O 5.622197 5.780416 31.050082
H 2.837949 5.852019 29.663909
H 5.850016 5.366333 31.913497
H 6.254688 5.305529 30.423310
H 8.784230 5.293982 31.333963
O 8.756462 6.287097 31.305245
H 8.535605 6.552492 30.365469
O 8.926724 10.083349 30.562029
H 8.369345 10.901301 30.713280
H 7.825454 7.303826 32.176372
O 7.426825 8.036036 32.759407
H 8.754387 8.863157 33.101739
H 9.258948 9.914763 31.480698
O 9.457176 9.612567 33.183580
H 9.834263 6.468979 33.182464
H 6.646064 7.534925 33.202556
H 8.263166 8.660327 29.498350
H 6.218140 11.129912 32.028774
H 11.537232 5.582207 32.148669
O 11.998363 5.130782 31.433918
H 11.215927 7.739700 32.297231
H 11.145866 7.885973 30.720333
O 11.543902 8.260462 31.553812
H 13.617387 5.787346 32.320165
H 13.289313 8.066781 31.118325
H 11.961158 9.776890 31.209248
H 12.041793 5.765934 30.698465
O 12.266405 10.717274 30.991783
O 10.828958 6.630140 33.339854
H 13.970313 10.864622 31.230406
O 14.251152 8.182520 30.933739
H 4.885642 6.249475 33.854139
H 5.272310 7.238358 34.984742
O 2.377247 6.453854 35.216464
H 3.065382 6.972092 35.725167
O 4.513911 8.002872 36.105756
H 5.092813 8.064657 36.942686
H 4.632887 8.923788 35.685744
O 4.447101 5.424682 37.454636
H 3.539582 10.008252 34.602733
O 4.510458 10.256257 34.660371
H 2.991620 5.413779 34.032941
H 2.106274 5.813501 35.888545
O 5.686903 6.696120 34.242186
H 5.332035 5.573675 37.888703
H 1.928239 8.151706 37.661851
H 4.507256 11.131599 35.156745
H 7.858163 4.776343 33.784272
H 6.120983 5.221894 35.146445
H 6.858180 10.577831 36.542258
H 7.800602 7.392720 36.293589
O 8.249183 6.509521 36.501921
O 7.387841 8.889760 35.544031
H 7.302562 8.695540 34.597862
H 8.356993 9.117127 35.768701
H 7.781629 6.153609 37.290396
H 9.644781 10.206509 37.079933
O 9.832138 9.240192 36.887888
H 8.419939 5.748817 34.964091
O 8.674690 5.192951 34.179879
H 10.096821 6.687314 36.462041
H 8.943573 10.949943 33.956833
O 13.965372 9.820157 37.003825
H 10.276471 9.373870 33.711411
O 13.737647 5.321591 36.700308
H 11.141122 5.581970 36.247823
H 13.760672 6.820739 35.746325
H 13.349147 9.052154 37.270506
O 13.638534 7.420830 34.987177
O 11.027334 6.558047 36.134271
H 10.963350 6.601150 34.319054
H 12.086755 7.343551 37.186382
H 12.395905 8.549309 34.845617
H 10.615562 9.210827 36.260406
O 11.778544 9.345443 34.810456
H 12.440077 10.070016 34.753984
H 13.331162 10.582837 36.826190
H 14.014682 6.437739 33.707657
H 13.502808 4.729989 35.946793
O 12.516067 7.927754 37.895603
H 2.094650 10.439915 40.633751
H 4.034835 4.766403 38.049746
H 4.285515 7.595746 41.965836
H 3.589643 10.440179 38.944974
H 2.813393 6.053558 41.652831
H 5.577413 9.172393 38.649728
H 3.601353 6.709616 38.245495
O 4.604690 10.416201 39.162135
O 3.008325 7.343103 38.750799
H 3.562374 7.641710 39.530089
O 4.321479 8.116366 41.139054
H 3.634289 8.828143 41.265799
O 2.493457 10.113178 41.468296
H 5.475790 10.075445 40.885109
O 2.978571 5.123445 41.302229
H 3.999409 5.113326 41.200448
O 5.949525 8.292731 38.401871
O 10.082591 6.168496 42.017640
H 9.793303 7.125633 42.070713
H 7.241493 11.048017 38.004792
H 8.806958 4.994312 41.321966
H 6.930416 8.437433 38.367622
H 6.213886 7.737956 40.958121
O 9.436572 8.640148 41.663791
O 9.819045 5.084275 38.705033
O 6.348792 10.409560 41.285891
H 6.930663 6.192464 39.407455
H 9.737768 8.351728 38.390708
O 7.096281 7.231575 41.036664
H 7.834595 7.902590 41.134437
H 7.593283 10.084351 40.092372
H 9.026678 10.457728 39.417095
O 8.074474 10.159553 39.231443
H 9.886093 8.686033 40.810676
O 6.862281 5.655512 38.613348
H 9.875568 6.976414 39.129358
O 10.095585 7.931685 39.199529
H 6.502201 9.881088 42.121755
H 7.017770 4.700362 38.845324
H 14.037706 10.162979 40.013119
O 12.403415 5.203765 39.127734
H 11.721477 8.091592 38.484828
H 11.103918 10.604865 38.642574
H 11.423641 10.608607 40.144531
O 10.817446 10.957321 39.483918
H 12.805948 5.024772 38.248895
H 12.512559 6.352255 40.334547
H 12.567600 8.645138 40.838683
H 11.398295 5.012673 39.074915
O 12.624618 9.626928 40.864306
O 12.532718 6.960799 41.128095
H 11.692622 6.747713 41.598338
H 12.692110 9.806318 41.855379
H 14.053567 7.321112 41.953761
O 2.437852 5.305513 44.352012
H 4.181821 6.760466 44.366929
O 2.350063 7.894584 46.058445
H 2.666965 8.528351 45.365055
O 4.770560 6.861818 43.603469
H 2.514955 5.313713 45.333292
O 3.192511 9.562703 44.256928
H 2.688359 9.185732 43.499303
H 5.665114 6.416548 43.780495
H 5.758378 8.357187 43.554557
H 2.213119 6.863958 43.305736
H 2.916786 10.501890 44.341103
O 2.082286 7.533976 42.599660
H 5.317914 11.047437 45.337301
H 3.296106 4.919832 44.013942
O 6.109550 5.103384 46.193917
H 7.529644 5.085050 43.460640
H 6.048431 9.829327 43.953766
O 6.490071 9.035517 43.509197
O 7.276820 6.046149 43.460336
O 9.030334 7.559520 44.917948
H 8.334116 7.009040 44.410361
H 8.669404 8.470075 44.920282
O 8.368801 10.133888 45.627270
H 7.595457 10.135469 46.247902
H 7.221680 6.340750 42.533041
H 9.126582 10.510849 44.052300
O 9.776702 10.620096 43.348762
H 10.129480 5.116922 45.274436
H 9.136118 10.473643 46.158755
H 9.768796 9.383361 42.259865
H 14.144775 8.641218 46.041752
H 10.140448 5.817827 42.918754
O 11.860710 7.623987 44.483627
H 10.863297 7.496322 44.552479
H 12.327820 6.763786 44.723569
H 12.548628 8.922344 43.777755
O 13.058426 9.687470 43.384380
H 12.780404 10.436912 43.986290
H 12.559497 8.568597 46.059714
O 13.349394 5.596794 46.200107
O 10.294702 4.790892 44.351352
H 14.060286 4.684175 43.687897
H 10.643182 11.008545 43.710476
H 11.736497 11.066093 45.638230
H 3.988475 7.482030 46.621591
H 5.834131 5.987778 46.591807
O 1.969835 4.765873 47.058651
H 2.328629 9.155646 47.216955
O 4.932319 7.393205 46.953927
H 2.402095 7.041408 48.803392
O 4.023950 8.069742 49.256029
H 3.504141 8.851231 48.910044
H 4.749042 8.502285 49.848958
O 2.495053 9.822692 47.923943
H 2.901543 10.691240 47.592165
H 4.783880 7.414269 47.921610
H 5.042090 5.431929 49.130299
H 3.210930 5.101713 49.900508
H 5.580719 9.084875 46.706577
H 2.565268 10.574774 50.356900
O 4.366066 4.781808 48.691615
H 5.523879 10.438440 47.550712
O 5.807416 10.046987 46.687652
H 2.900362 4.633804 47.467095
H 9.593198 7.606739 46.485155
H 7.816808 4.852752 46.409656
O 6.196964 6.016632 50.175256
H 9.326342 7.692903 47.931199
H 8.601121 5.695791 48.361207
H 8.077191 10.352223 48.768382
O 8.131590 9.430111 49.218026
H 7.692001 6.118974 49.543208
H 9.079644 9.345259 49.559242
O 8.664611 6.066406 49.298396
H 6.822814 9.161400 50.220718
O 8.803944 4.868900 46.733012
O 10.091336 7.668376 47.348418
H 13.841752 9.804816 49.895586
H 14.098627 6.030571 46.725554
O 13.348505 8.920900 46.558168
H 10.825302 6.137609 47.875438
O 10.715022 8.814262 50.106354
H 10.509235 9.531305 47.298187
O 10.735477 10.456252 47.115123
O 11.523793 5.423592 48.134356
H 11.334360 5.814022 49.910656
H 13.446729 7.547963 49.503379
H 12.673286 5.395281 46.901565
H 13.301418 8.357008 48.185855
O 13.182986 8.441860 49.138570
H 11.642719 8.703071 49.670663
H 13.476325 10.525763 47.376730
H 10.877231 10.899878 47.995332
H 13.458291 4.807667 50.130708
H 10.609979 7.940797 50.537173
O 14.217999 6.197913 49.816029
H 10.988252 4.617516 48.170735
H 5.113095 10.733453 53.277858
O 2.291260 6.222076 54.633182
H 4.091699 4.863607 52.021068
H 2.235982 7.022426 53.113719
O 2.777374 5.140120 50.761285
H 2.282744 10.765547 53.425304
H 5.206582 5.161379 53.065315
H 2.639267 6.641718 51.626628
O 2.547629 7.401916 52.252080
O 4.645605 8.755044 53.019650
H 3.877108 8.233802 52.583503
H 4.308717 8.990927 53.899048
H 5.649140 7.446321 53.346355
H 5.815252 9.131683 51.513836
H 2.479919 5.286551 54.683869
O 6.195225 8.603927 50.772955
H 6.041657 6.826673 50.722673
H 8.383624 8.895747 54.517600
O 6.204375 6.618288 53.509783
H 6.378432 5.256486 50.777521
H 7.364175 10.542943 53.493851
O 8.786848 7.472476 52.180945
H 7.104137 6.823274 53.131224
H 8.842186 7.002100 51.353706
H 8.397113 8.348086 52.036898
H 8.940213 10.739882 53.760583
O 8.264895 10.108224 53.357720
H 9.256329 5.436045 53.923199
H 10.293269 7.331156 53.183687
O 8.830081 5.624356 54.762159
O 9.517504 4.653692 52.309972
H 8.069928 11.020192 51.332548
H 7.488833 4.630999 54.423683
H 14.043882 5.608905 54.287197
H 11.213309 9.814307 51.490700
O 12.658414 4.826129 53.365737
H 11.111675 10.879800 53.745463
H 11.964469 5.570787 53.430428
H 14.124023 7.244645 52.259082
O 11.118197 7.100074 53.745666
O 11.301207 6.174425 50.817300
H 12.853825 4.733751 52.425402
O 11.766439 10.044879 52.300484
H 11.939270 7.525039 53.323421
H 12.419869 9.281967 52.304188
H 12.668197 7.183502 51.454828
O 13.186098 7.646174 52.164556
H 10.603309 5.618649 51.260601
O 3.087458 15.470416 4.896565
H 3.761654 15.429626 6.710244
O 3.666701 15.731121 7.632267
O 2.911326 12.064910 5.562912
H 3.550911 11.945176 6.370104
O 4.403745 12.215631 7.715828
H 5.309317 16.914229 5.808598
H 5.090160 12.890081 7.425757
H 2.259106 15.853226 5.310027
H 4.560538 17.222785 7.993499
H 1.964751 16.066502 8.225374
H 4.300278 15.206443 8.232406
H 4.134660 12.831585 4.549165
O 5.033379 13.204751 4.339414
H 4.829608 14.160038 4.426207
H 3.268052 16.083734 4.168058
H 9.093923 17.664303 6.422004
O 6.036973 16.197355 5.690154
H 6.200842 14.616365 6.371926
O 6.527024 13.816963 6.891994
H 6.845146 13.195792 6.173138
H 8.559914 12.034291 5.576810
H 6.938321 16.615632 5.861756
O 8.356153 17.496823 5.788556
H 8.717281 16.806932 5.168543
O 7.630240 12.031235 5.131408
H 9.447838 15.262937 7.348675
H 7.449652 14.866214 7.904971
O 9.970828 12.303903 6.516931
H 10.119005 12.125936 8.192698
H 7.758752 12.542053 4.302184
H 9.957785 14.969505 4.259047
O 11.380162 13.807846 4.395805
H 13.867988 16.029559 6.295722
H 10.150182 13.270046 6.493505
O 10.226914 14.963392 6.775144
H 11.034597 15.220514 7.266976
H 10.900897 11.932845 6.375137
H 11.626118 17.440171 4.599867
H 11.932353 13.836673 5.204715
O 13.208480 13.928370 6.479039
H 11.416279 15.995831 5.119971
O 12.009826 16.750280 5.187575
H 13.000816 12.949790 6.606895
H 12.810444 14.707166 8.009061
H 14.170517 13.961677 6.118543
O 12.576939 11.336126 6.498756
H 11.223635 17.441225 6.570095
H 13.137974 11.331541 5.677474
O 14.038843 11.685683 4.377386
H 4.895564 11.648266 8.405287
O 2.019232 15.090346 10.833169
H 3.147198 12.881702 8.669603
H 4.059564 17.184367 11.653913
H 4.452071 12.408775 11.871835
O 4.427160 13.402375 11.757521
H 3.602267 15.669620 11.561164
O 4.297264 16.266602 11.966056
O 5.346270 14.610252 9.431674
H 4.936375 14.152713 10.161850
H 5.083880 13.720734 12.464713
O 2.219745 13.051869 9.048005
H 2.600323 13.343457 12.300117
H 5.969797 16.136645 11.655994
H 2.145148 14.310917 10.219438
H 6.008050 15.260407 9.881266
O 8.107380 15.351472 8.509569
H 7.847144 16.308604 8.448577
O 6.749195 16.322200 11.057890
H 7.661516 16.171110 11.518797
H 6.840971 13.275369 9.333748
O 7.435570 12.545478 9.618746
H 9.387510 15.030953 9.694600
H 7.756084 12.723182 10.501645
O 8.310203 12.915114 12.034248
H 10.063569 13.098983 9.407827
O 9.096245 15.925846 12.306612
H 9.204796 14.951166 12.345021
H 9.260480 12.870319 12.330408
H 7.860979 11.275100 8.481186
H 7.616653 11.283690 12.232991
H 6.158455 11.225510 9.953569
H 13.927327 14.434867 11.400374
O 10.279287 14.729564 10.068897
O 12.410777 15.382354 8.621950
O 10.452514 12.224432 9.122043
H 11.032572 13.685214 11.426352
O 11.095666 13.118218 12.210057
H 10.658400 16.365361 11.553604
H 11.007917 15.063363 9.469372
H 13.029176 15.405595 9.413205
O 13.199439 12.646240 9.429492
H 12.207609 12.712642 9.252263
H 12.324658 16.333109 11.535744
O 13.739377 15.387097 11.100916
O 11.508377 16.920921 11.486984
H 12.095451 11.791926 12.017149
H 13.422568 11.644683 9.240491
H 14.145911 12.140481 11.678471
O 2.589448 17.725909 14.351014
H 2.563795 16.747961 14.226654
O 3.880719 12.337209 14.618405
H 3.414212 12.224801 15.470201
H 3.727261 13.292285 14.432043
H 4.168515 15.095141 15.074391
O 3.510703 15.138777 14.337365
H 4.059594 15.490547 13.609777
H 5.464124 12.186488 14.915580
H 5.849359 17.537560 14.066929
H 1.920392 12.116766 12.969255
O 8.087122 16.976836 16.497552
H 7.751638 13.540870 12.562435
O 10.114608 16.393609 14.804310
H 6.748216 15.241225 13.905328
O 6.531895 14.338848 13.596027
O 6.442777 12.167622 15.152832
O 6.651855 16.974043 14.238679
H 6.788850 13.700813 14.333610
H 7.387001 17.135409 15.773515
H 9.432175 16.547070 15.491562
H 9.404111 16.257169 13.220765
O 9.387164 13.807741 14.891377
H 9.957290 14.598447 14.833079
H 8.258373 14.028447 16.178610
H 10.017569 13.037272 14.877374
H 7.378849 17.594318 13.990974
H 6.847113 11.286325 14.957591
H 14.181881 16.681876 14.378057
H 12.409789 11.516886 15.086264
O 13.861367 12.236869 16.480960
O 13.272069 16.930987 14.026491
O 11.412524 11.687528 15.087025
H 13.303543 14.107286 14.070126
H 12.608956 15.487121 13.834294
H 11.480511 13.686163 12.940131
O 12.366754 14.512915 14.001781
H 10.810233 17.060049 14.991028
H 12.117092 14.583902 15.782191
O 12.349362 14.493891 16.722881
H 13.394356 17.581354 13.302201
H 13.166335 12.955060 16.645657
O 4.481761 12.629113 18.833395
H 5.162430 13.052713 20.368738
H 4.836347 13.404114 18.315102
H 5.114716 11.874295 18.568490
H 2.983018 12.244458 17.749927
O 5.318304 17.029219 17.713751
H 5.396681 17.085450 18.682905
H 3.021715 16.245891 20.449412
H 5.113841 15.394950 17.204084
H 4.449324 17.438274 17.394809
O 2.364788 16.576529 19.738009
H 2.423875 15.751937 18.387810
H 2.597981 17.574608 19.685394
O 2.271069 15.102361 17.619073
H 5.275368 16.794442 20.782967
O 2.513631 12.152286 16.851858
H 3.834320 14.524193 17.046795
H 2.023216 11.267090 16.871037
O 4.855488 14.472178 16.867485
O 5.905280 17.325918 20.251025
O 8.707053 12.093262 19.127475
H 8.690155 12.942201 19.679407
H 9.632824 12.045306 18.643785
H 9.371995 14.374526 18.072979
H 9.010077 16.973990 19.928481
H 7.450047 11.776327 18.178159
H 7.989985 14.887346 20.592444
O 7.732714 14.335265 16.970687
O 9.890984 17.324021 18.524144
O 8.507047 16.631389 20.681693
O 8.043297 13.930900 20.844766
O 6.644191 11.405584 17.707662
H 7.576928 16.955440 20.587877
H 6.543600 11.850949 16.871595
H 9.104151 17.474268 17.935478
H 7.857817 16.065237 16.762558
H 6.767639 14.090422 16.857033
H 10.930938 11.948654 16.783818
H 10.108679 16.360355 18.412013
O 10.282400 14.705269 18.393138
H 10.875304 11.582761 20.816657
H 11.492764 14.468437 17.269080
H 10.469164 14.290470 19.274413
H 12.875417 15.916308 17.463814
O 11.052681 11.959194 17.741302
O 13.087133 16.736156 17.968508
H 12.739147 16.523987 18.886569
O 11.055448 13.503875 20.613044
O 12.627484 16.226709 20.439011
H 12.078899 13.360690 20.537291
H 13.308088 15.519110 20.615987
O 13.819419 13.571119 20.418766
H 11.819257 16.019177 20.957405
H 14.206141 12.969289 19.730551
O 2.141594 13.181511 21.749431
O 5.383025 13.266041 21.322366
O 5.185444 11.629558 24.509346
H 4.496935 11.654011 21.616547
O 2.782903 16.605461 23.494984
H 4.579244 14.821525 21.463520
H 4.375616 13.003544 23.867708
O 4.157309 15.688645 21.523798
H 3.591921 15.910352 22.313947
O 3.948256 13.910084 23.738630
H 3.358311 16.543223 24.322070
H 3.370145 14.044099 24.529235
H 5.458660 14.781209 23.607674
H 2.789030 13.581607 22.383458
H 2.851769 17.559378 23.159857
O 7.719472 11.216761 23.262856
H 6.376920 13.471517 21.285530
H 6.158544 17.049298 23.615335
O 6.384949 15.150054 23.721937
H 6.892964 11.428930 23.762325
H 9.755555 16.250213 21.678093
H 6.809701 14.623268 24.428367
H 8.468310 14.035772 21.757296
H 8.457984 13.627561 24.831433
H 8.824102 15.597264 24.086949
O 9.086907 16.147554 24.868269
H 8.684968 12.660205 23.156914
O 9.202820 13.514731 23.266915
H 9.746167 17.534188 24.347541
H 10.192031 13.288965 23.324300
H 9.926361 15.733018 25.195785
O 10.615908 15.936544 22.132049
O 12.899330 17.021947 24.745178
H 10.722730 16.616317 22.819453
H 10.953666 14.009844 21.426684
H 12.832184 13.569064 23.316740
O 11.954439 13.099721 23.463831
H 12.208597 12.133999 23.453734
H 11.615347 14.187758 24.790030
H 12.241849 16.372898 25.025051
H 13.568670 16.444411 24.305682
H 12.889745 17.478115 21.562156
O 14.151099 14.653518 23.522230
O 2.067096 14.031451 25.647712
O 6.005055 12.196027 29.210308
H 5.938383 11.244798 29.069103
H 5.063652 12.072393 25.390316
H 5.170568 16.753284 26.085128
O 2.499416 16.028294 27.323347
H 3.599327 16.863005 26.392704
H 2.856606 12.360344 28.486119
O 5.018453 12.992740 26.862643
H 4.090622 13.272418 27.139421
H 5.607444 13.801997 27.031957
H 3.109005 16.049796 28.116540
H 5.012504 15.843160 29.009282
O 2.959830 13.357369 28.694654
O 4.331193 17.113064 25.739549
H 5.642939 12.543423 28.327409
H 2.200933 14.737363 26.363732
O 4.290268 16.462276 29.344511
H 1.990749 13.699812 28.730576
O 6.167936 15.095457 28.101725
H 7.726686 12.316867 29.031506
O 7.767942 13.631671 25.529238
H 7.703958 12.670008 25.842598
H 7.855445 16.707013 25.986543
H 6.694652 15.757102 27.630416
O 8.739317 12.407985 28.887510
H 8.942831 13.885947 28.158755
O 9.154301 14.679077 27.644268
O 7.052801 16.929090 26.509148
H 6.779378 14.818415 28.897962
H 8.545833 14.662740 26.834889
O 8.912643 16.979840 29.081179
H 9.012794 16.111454 28.562125
H 8.885962 11.772058 28.174687
H 9.323476 17.600958 28.441063
O 13.382547 12.167095 25.999786
O 10.699903 12.372307 26.657152
H 13.484329 15.024313 27.909731
H 12.385381 12.172575 26.095225
H 11.415686 14.779892 29.055657
O 11.906562 15.575288 28.728293
H 12.198962 14.812618 26.210857
O 13.898670 14.654625 27.091727
H 10.360712 13.300559 26.808150
O 12.444079 12.679810 29.042668
H 13.650836 13.053187 26.425532
H 11.165086 15.942236 28.144954
H 10.907568 11.963041 27.513363
O 11.443306 14.854304 25.535124
O 10.588338 17.687754 27.017395
H 13.579639 17.722536 26.351555
H 14.161525 17.119388 28.688869
H 14.025700 12.150547 28.492410
O 4.396477 13.621289 31.038716
H 4.232544 13.151261 32.734444
H 5.124706 13.113106 30.554824
H 5.148670 15.272370 31.639104
H 5.453328 16.770042 31.944041
H 3.692754 16.020284 30.050891
H 3.714242 13.698020 30.317978
O 2.722022 15.417979 33.559907
H 2.396404 15.490494 32.611708
O 5.835673 15.888956 31.951449
O 2.203494 15.626407 30.796542
H 3.387023 14.660264 33.643321
H 3.504645 11.397996 31.068246
H 5.749385 17.715053 29.901568
O 2.523725 11.222137 31.101125
H 1.962979 16.602510 30.749203
O 7.583895 12.138795 31.683753
H 9.074259 16.628965 30.741947
H 8.214992 12.396918 32.393330
H 7.090945 15.159909 31.003910
H 8.463666 14.428807 30.459690
H 8.775929 15.355636 32.778028
O 9.092787 16.670861 31.717241
H 7.394512 13.014031 31.239691
O 7.444464 14.457739 30.350602
O 8.557691 14.538949 33.272474
H 8.656854 17.526493 31.964235
H 7.295744 17.434849 29.523516
H 12.235228 11.997771 29.702927
H 10.130270 13.213236 30.126491
O 10.103441 14.149498 30.378914
O 13.914333 17.187951 32.659655
H 10.622134 14.286517 31.233653
H 11.813229 16.679768 30.091329
H 10.930197 17.057572 31.316864
H 11.567717 13.077113 33.008025
O 11.669795 14.564297 32.554373
H 12.488843 14.686613 32.020758
H 11.466627 15.332606 33.179876
O 13.651331 14.440190 30.758488
O 11.538566 12.051366 33.128224
O 11.734718 17.345312 30.842004
H 13.234124 17.291189 31.930799
H 14.032518 15.251396 30.356589
H 10.686464 11.951026 33.628606
H 11.865750 11.273203 31.703338
H 12.911781 13.361006 29.636865
O 4.173085 13.189995 33.711868
H 3.229948 16.918076 33.995800
H 5.095051 13.265040 34.117623
H 2.679836 12.459789 34.365937
H 3.088871 17.084185 37.585287
H 4.701368 15.497134 37.069227
O 4.521817 15.300881 36.099261
H 4.551674 14.292156 36.138025
O 4.578469 12.540472 36.290850
H 5.424795 12.218793 36.693611
H 3.847062 12.571986 36.884692
H 5.718979 15.905715 35.230214
O 2.099129 12.833693 37.352449
H 1.955376 15.965951 37.232808
H 6.153869 16.034618 33.760678
H 9.316163 14.479820 33.928014
H 9.916825 17.438221 36.829945
H 7.017227 12.452147 34.778643
H 7.260219 13.828083 34.099154
O 6.404085 16.382752 34.667120
O 6.656222 13.348358 34.705630
O 8.933938 11.907496 34.315604
H 8.891397 15.528912 36.518056
O 8.952516 16.257116 35.842880
H 8.064790 16.263704 35.323674
H 9.205340 12.850504 37.034268
H 9.101631 11.881357 35.270450
O 9.650858 11.959774 36.900979
H 7.348463 13.941809 36.785853
O 8.095571 14.258587 37.325913
H 10.084419 16.405361 34.741248
O 6.739856 11.302556 37.184099
H 7.538587 17.211402 37.060957
H 10.830490 17.408657 33.769507
H 13.992201 15.872988 33.681425
O 13.917792 11.360210 34.436260
H 10.681325 12.084830 36.954254
H 13.142520 11.767684 33.926136
O 12.708909 17.058520 36.011738
O 10.923033 16.507914 34.168869
O 12.022079 13.995931 35.408103
H 13.365600 16.390499 36.290951
H 12.423327 12.654092 36.247823
O 12.369521 11.953556 36.981044
H 12.901554 14.395290 35.145075
H 11.763771 14.486565 36.216467
H 12.068425 16.635500 35.332097
H 12.675361 12.341689 37.840400