18432
Timestep: 1000000
O 2.203054 3.356420 3.575167
O 4.291204 4.551898 4.818276
H 3.534189 4.017259 4.410773
H 3.948927 4.381541 6.498683
H 5.171506 4.111863 4.660996
H 1.483761 3.892369 3.971194
H 2.007950 2.489970 4.055107
O 6.674178 3.598638 4.067759
O 9.214543 4.109926 4.725006
H 8.305147 3.734115 4.518923
H 9.003128 4.107409 6.257983
H 9.179230 5.064028 4.387365
H 6.569730 3.669663 3.097229
H 6.506249 2.659931 4.196901
H 10.529650 3.193524 3.856587
O 11.434265 3.048813 3.482810
O 12.925166 4.499209 5.381421
H 12.283161 3.927636 4.889291
H 12.806942 4.349013 6.354323
H 4.269780 6.029226 4.095854
O 4.244172 6.959240 3.789077
O 2.136073 8.392916 4.382931
H 2.935079 7.804406 4.258147
H 1.965780 8.425864 5.983579
H 5.063723 7.409944 4.198501
O 1.905383 8.290265 6.981505
H 1.309067 7.847023 4.167411
O 8.753317 6.767844 4.233735
O 6.490469 8.123238 4.767991
H 7.905655 7.307006 4.460350
H 6.530099 8.102871 5.777007
H 6.469034 9.071265 4.439131
H 9.525059 7.239727 4.537318
H 8.695953 7.021948 2.674179
H 12.763559 5.926330 4.743568
O 12.763405 6.752902 4.116686
O 10.777662 8.296761 4.908271
H 12.023635 7.319788 4.438841
H 10.719887 8.250644 5.932258
H 10.835232 9.251811 4.612359
O 3.972556 4.442505 7.486496
O 1.421100 3.588590 11.126899
O 1.762441 3.635801 8.526930
H 2.660014 4.005385 8.292360
H 1.588303 3.672197 9.506756
H 3.927091 5.478769 10.909399
H 3.934447 5.423522 7.656219
H 2.252040 4.145871 11.327599
H 1.612631 2.629727 11.376338
O 3.836640 4.584694 11.296574
H 2.056365 2.236741 7.711855
O 8.805541 4.166255 7.241309
H 5.342992 4.008627 10.955776
H 7.833025 4.032774 7.457580
H 5.433279 3.963874 7.926039
O 6.357442 3.650022 8.131864
H 6.366026 3.717494 9.148406
O 6.252069 3.629000 10.686584
H 7.522765 4.362035 11.465389
H 8.520263 5.612677 11.403553
H 6.265382 2.618680 10.839082
H 9.359392 3.413334 11.495609
H 8.836279 5.747463 7.707073
H 9.816763 3.384991 8.306745
O 10.509038 2.867664 8.794028
O 12.661887 4.267185 7.907354
H 11.917079 3.731663 8.253497
O 10.154985 2.825468 11.374889
H 13.029871 3.876217 11.138333
H 10.216512 2.584062 10.438380
H 11.444031 3.892574 11.490939
H 13.481690 3.675222 7.942324
H 10.679177 2.149618 8.132562
O 4.120006 7.048184 7.923242
H 3.359398 7.570755 7.590544
H 4.097117 7.114387 8.935200
O 4.138614 7.022539 10.480893
H 3.347396 7.458922 10.904192
H 4.985464 7.383754 10.829634
H 1.826184 8.874684 11.508492
H 2.059361 9.179300 7.437725
H 1.211953 7.349875 11.447300
H 5.526136 7.613659 7.553883
O 6.465642 7.873909 7.320354
O 8.667579 6.606172 8.206691
H 7.814417 6.968545 7.822710
H 8.720729 6.826760 9.735099
O 8.740004 6.903133 10.753037
H 7.301379 7.572312 11.034682
H 6.568856 8.810425 7.689123
O 6.420152 7.957756 11.352344
H 6.365666 9.457230 11.146116
H 9.605554 7.413133 10.902152
H 12.760835 5.923854 7.898996
H 12.624159 5.796073 10.939673
O 10.855793 8.160752 11.339247
H 9.871762 7.575742 7.684152
O 10.675425 8.164965 7.518891
O 12.767671 6.896994 8.131274
H 11.517947 7.608819 7.755232
O 12.845236 6.762190 10.741926
H 12.886460 6.830476 9.754906
H 11.672511 7.666102 11.000436
H 13.652703 7.307205 7.751566
H 10.866947 9.081156 11.046706
O 2.565106 2.173261 14.326499
H 3.826298 4.683424 12.276615
O 3.962492 4.475220 13.849254
H 3.305838 3.814164 14.182805
O 1.774063 5.006961 15.691997
H 3.865888 5.331476 14.343944
H 1.688227 2.242236 14.776208
H 1.089570 4.320483 15.476214
O 8.371250 4.701168 11.850094
H 5.341877 3.788437 14.339918
O 6.149831 3.325940 14.695477
O 8.507721 4.412090 14.373306
H 7.043600 3.798573 14.547327
H 8.490912 4.581470 13.382636
H 8.598907 5.300950 14.755327
O 12.324488 4.386316 11.593624
H 9.894893 3.447436 14.897680
O 10.735359 2.996609 15.177553
O 12.625649 4.381230 14.214313
H 12.444202 4.374775 13.245276
H 11.846402 3.902862 14.633641
H 10.813900 2.148278 14.643947
O 1.966911 7.882693 11.804522
H 1.816890 8.049673 13.392567
O 1.774705 8.025854 14.394615
O 4.124165 6.917659 14.971969
H 3.208421 7.359133 14.820062
H 4.282980 6.820878 15.951795
H 6.300386 9.406373 14.442603
H 8.536660 7.194558 15.898547
H 5.505272 7.518973 14.355216
H 9.301668 7.201107 14.509807
O 8.451745 7.010753 14.923498
H 7.116025 7.500995 14.312865
H 6.296428 7.818949 12.340437
O 6.302185 7.866886 13.865142
O 10.731195 7.836822 13.880225
H 13.052230 6.986266 15.930378
O 12.975745 6.886717 14.937401
H 10.687813 9.358559 14.525964
H 12.732770 5.923216 14.694940
H 11.583535 7.503746 14.288281
H 10.823050 7.882155 12.903029
O 2.062250 3.551134 17.853101
O 4.461055 4.407917 18.833034
H 3.544027 4.118722 18.548598
H 4.325335 4.489049 20.388980
H 2.072078 4.048979 16.975422
H 5.099971 3.902108 18.317141
H 1.217881 3.923539 18.244838
H 1.283706 5.764704 16.027158
O 6.239475 3.320492 17.305914
O 8.268652 4.799506 18.115583
H 7.497476 4.240896 17.758897
H 8.482740 4.768219 19.661920
H 8.249685 5.757207 17.772048
H 6.588440 2.391590 17.542363
H 6.190644 3.280029 16.333871
H 9.635675 3.797034 17.989012
H 13.751702 3.664319 17.899854
O 10.443244 3.216442 18.004739
O 12.584836 4.652196 18.270388
H 11.749459 4.114122 18.134370
H 12.773223 4.679146 19.213553
H 10.496907 2.833919 17.128242
H 4.662534 5.897372 17.971781
O 4.610567 6.793928 17.522126
O 2.406990 8.316074 18.094273
H 3.197833 7.763346 17.906349
H 2.596625 8.579607 19.792463
H 1.598125 7.787528 17.735494
H 5.373802 7.365208 17.879725
O 8.617412 7.298023 17.467644
O 6.444824 8.335328 18.430723
H 7.864123 7.819406 17.844781
H 6.413932 8.493635 19.393480
H 9.488975 7.741867 17.746283
H 6.425189 9.277679 18.069903
H 12.901675 6.153777 17.766573
O 12.942899 7.111314 17.469737
O 10.883344 8.422821 18.258311
H 12.153629 7.573799 17.857610
H 10.734537 8.445528 19.267445
H 10.876765 9.376877 17.976344
H 2.480550 2.196612 21.545995
O 4.302410 4.548901 21.364351
O 2.349461 3.035592 22.009982
H 3.164936 3.635303 21.829733
O 2.031394 3.246342 24.511024
H 2.272451 3.088199 23.575374
H 2.904022 3.632400 24.795997
H 4.247148 5.528689 21.528926
H 4.422689 5.251901 24.881398
O 8.607028 4.692267 20.655434
H 5.726355 3.925780 21.799942
H 7.797558 4.211324 20.996822
O 6.596613 3.440050 21.870367
H 6.680243 3.316173 22.840102
O 6.688622 3.201478 24.476617
H 5.782943 3.535520 24.737113
H 8.763238 5.468369 24.613763
H 6.692014 2.213323 24.599324
H 8.044336 4.039334 24.713227
O 8.903975 4.500853 24.836792
H 13.661441 4.205899 24.401415
H 10.891928 2.628002 24.106941
H 10.029514 3.945228 23.891480
H 10.134116 3.837187 20.723604
O 13.036810 4.886824 20.881577
O 10.947596 3.335743 20.963810
H 10.894292 3.195532 21.933223
H 12.219732 4.311171 21.014428
O 10.787172 3.414762 23.471992
H 12.042551 4.196512 23.839574
O 12.760475 4.697423 24.394169
H 1.213228 7.817615 21.300314
O 2.689863 8.598978 20.764184
O 4.445224 7.089215 21.933438
H 4.285823 7.124154 22.895658
H 3.707134 7.663779 21.502516
O 4.229780 6.800254 24.498625
H 2.141948 9.102692 24.803297
H 3.422632 7.333506 24.736899
H 5.044781 7.218337 24.919563
H 1.412569 7.617370 24.880002
H 6.604169 9.358442 21.317490
H 5.661933 8.003557 21.424201
H 8.603842 6.075419 21.236062
O 6.487076 8.408776 21.017327
O 8.622912 6.986875 21.665534
H 7.794936 7.514350 21.418780
O 8.717901 7.022381 24.277420
H 8.733887 7.026460 23.283531
H 7.298243 7.591490 24.844951
H 9.550195 7.583894 24.604316
H 13.751445 7.786439 21.278252
H 9.852898 7.876455 21.199776
O 10.641757 8.410122 20.840299
H 12.942077 6.414254 21.368108
H 12.912161 6.233697 24.347362
H 11.588572 7.999928 24.636361
O 12.874946 7.357512 21.618835
H 11.504274 8.051136 21.158230
O 12.970296 7.238422 24.224387
H 12.938941 7.362867 23.212516
H 10.803569 9.438093 24.678122
O 4.410759 4.306999 25.169592
H 2.339042 2.659608 28.766833
O 2.593516 2.635578 27.805472
H 1.857508 3.134351 27.406756
H 4.545673 4.372346 26.173304
O 4.752569 4.222432 27.751204
H 3.991420 3.579530 27.791462
H 4.405053 5.079929 28.118196
H 6.350760 3.800838 28.041169
O 7.171230 3.352007 28.361301
H 7.977977 3.807381 28.005151
H 9.364584 4.399730 26.424890
H 9.375429 5.347523 27.698707
O 9.525984 4.427921 27.407722
H 13.673829 3.538142 27.724741
O 12.294212 4.440796 27.060376
H 12.374142 4.445045 26.061280
H 11.366981 4.222455 27.283889
O 2.210996 8.188843 25.211406
H 1.474718 7.720307 28.048308
O 4.371581 6.764642 28.533873
O 2.314791 8.198675 27.765536
H 3.528329 7.227215 28.253087
H 2.219431 8.209502 26.754899
H 8.790275 6.955091 29.264476
O 6.480857 8.049147 25.183494
O 6.559964 8.086894 27.718139
O 8.824868 6.880537 28.296351
H 7.415233 7.640527 27.903701
H 5.764824 7.549933 28.002038
H 6.557702 8.137459 26.169708
H 9.585507 7.441915 27.974609
H 12.755489 6.672397 29.271185
O 10.776994 8.443070 24.977910
O 10.860727 8.403391 27.635261
H 11.563232 7.776431 27.935800
H 10.858517 8.416793 26.644162
O 12.816811 6.780098 28.315031
H 12.643640 5.922736 27.862906
O 1.993408 3.088942 30.375436
O 4.087927 4.273874 31.526976
H 3.284562 3.878230 31.072973
H 4.228412 4.312845 33.083297
H 4.863750 3.809862 31.136580
H 1.079900 3.405820 30.635663
H 2.125633 2.259278 30.908183
O 6.647809 3.355998 30.989612
O 6.959096 5.355541 32.845184
H 6.859069 4.630126 32.171641
H 9.022301 3.757764 31.674374
H 9.128342 5.249818 31.201369
H 7.010601 3.402349 30.064483
O 8.722528 2.725858 33.272187
H 6.736014 2.434661 31.297720
H 7.958496 2.892220 33.849648
O 9.575022 4.379598 31.163258
O 12.118316 4.577876 32.091178
H 11.179417 4.379042 31.971639
H 12.268100 4.480305 33.065905
H 10.460207 3.681151 29.805543
O 11.191136 3.106546 29.482406
H 11.421980 2.605930 30.319772
H 13.413429 3.937210 31.189399
H 4.146838 5.865787 31.222840
H 1.200688 7.386575 31.438140
O 4.118603 6.882901 31.179630
O 1.905733 7.992080 31.788760
H 2.809705 7.577784 31.545924
H 2.020625 7.961472 33.308098
H 4.944029 7.291632 31.579043
H 4.322205 6.929445 29.504306
H 6.715916 6.163404 32.374595
O 8.712607 7.050660 30.818542
O 6.462044 7.995644 31.903791
H 7.928169 7.531726 31.143720
H 6.659477 8.117971 32.910939
H 9.516629 7.558553 31.210226
H 6.314522 8.894933 31.520803
H 12.455921 6.100900 31.432343
O 12.623953 6.943520 30.941839
O 10.691514 8.339483 31.795846
H 11.902276 7.545643 31.276947
H 10.633790 8.218749 32.835415
H 10.626953 9.270890 31.496541
O 4.319804 4.256692 34.042189
O 2.107535 3.323143 35.090776
H 2.969805 3.700282 34.702045
H 4.477458 5.231406 34.330275
H 2.165428 3.465338 36.066147
O 2.066044 3.361459 37.727461
H 2.998400 3.784779 37.910232
H 4.238271 5.423177 37.944854
O 4.395678 4.440029 38.167186
H 2.251361 2.412098 37.977114
H 8.033645 5.790654 34.062264
H 5.948687 3.788489 34.491200
H 5.613122 3.644579 37.641041
O 6.612393 3.141795 34.852771
H 6.608847 3.211860 35.806939
O 6.479829 3.203204 37.419622
H 7.746156 4.059443 38.003953
H 9.429709 5.329223 34.741283
H 8.511267 5.429784 37.879261
O 8.559739 4.543154 38.351192
H 6.446315 2.259371 37.766377
H 13.584955 2.591461 36.537381
H 9.712726 3.745662 37.445279
H 10.055574 3.486506 33.988029
O 10.700252 4.042688 34.513315
H 10.679588 3.693593 35.426152
O 10.472595 3.301431 36.976891
H 11.776239 4.041295 37.733580
H 13.188033 3.720654 34.890506
H 10.654402 2.375923 37.311408
H 13.338023 4.054041 38.107336
O 13.568147 4.530899 34.465489
O 13.069450 2.182380 35.795506
O 12.435823 4.498752 38.329721
H 1.212239 7.666202 38.124996
H 2.033301 9.003319 34.441817
O 2.191150 8.042416 34.306979
O 4.538142 6.790235 34.864955
H 4.460526 6.793301 35.829376
H 3.712665 7.319758 34.582291
O 4.182331 6.926794 37.437979
H 3.350644 7.458079 37.711143
O 2.067920 8.178894 38.337021
H 2.028947 9.113402 37.928268
H 4.974659 7.471891 37.685539
O 8.685210 5.975250 34.789324
O 6.875158 8.123121 34.429632
H 6.102809 7.617580 34.755185
H 6.690781 9.034512 34.714176
O 8.329255 6.947272 37.186554
H 8.412782 6.733478 36.231205
H 9.107679 7.528788 37.428156
H 7.126151 7.846332 37.742598
O 6.327732 8.263227 38.162731
H 10.505389 9.290144 38.123171
H 13.401144 7.584467 34.616751
H 12.511898 5.986562 37.853764
H 9.732927 7.374104 34.410791
H 12.960993 5.967647 34.657385
O 10.498706 8.031999 34.299518
H 11.329406 7.924830 37.975343
H 11.359425 7.546322 34.537953
O 12.694116 6.902624 34.929154
O 12.565509 6.944960 37.519247
H 12.649911 6.884915 36.534482
O 10.448693 8.329300 38.277922
H 2.370423 3.247021 42.567601
H 4.425213 4.475928 39.165316
O 2.285451 3.188784 41.591640
O 4.423404 4.419329 40.703387
H 3.589790 3.960046 41.026954
H 4.350974 5.350069 41.044936
H 1.363856 3.386764 41.313054
H 5.708657 3.596081 41.250842
H 8.775677 4.433252 39.951904
O 6.564024 3.118725 41.580636
O 8.731009 4.323017 40.942198
H 7.364551 3.647342 41.294160
H 8.767658 5.254927 41.234256
H 9.935911 3.490878 41.853102
O 10.686785 2.876758 42.175703
O 12.666719 4.245894 40.875047
H 12.504496 4.217697 39.873750
H 11.936149 3.763716 41.358251
H 12.749732 5.755715 41.291261
H 4.179869 6.777067 42.659068
O 4.204906 6.919848 41.638232
O 2.062497 8.338605 40.922874
H 3.419399 7.438702 41.334042
H 2.059074 8.349432 39.938216
H 1.403388 7.619289 41.235007
H 8.565445 6.782597 42.695139
O 6.372194 8.030770 40.748154
H 9.341967 7.259040 41.301997
H 7.184081 7.615620 41.102800
H 5.588892 7.540867 41.143810
H 6.340891 8.058745 39.125380
O 8.491529 6.884142 41.710911
H 10.739780 8.132719 39.828124
O 10.737672 8.077472 40.827060
H 12.647598 6.662723 42.610543
H 11.547400 7.561690 41.070969
O 12.861942 6.723401 41.617995
O 2.572276 3.153775 44.212061
O 5.025840 4.006596 44.937778
H 4.156306 3.637176 44.555488
H 4.783970 4.168806 46.643698
H 1.655968 3.507470 44.451623
H 4.671216 5.579073 44.431225
H 2.630514 2.184888 44.521296
H 5.689248 3.355928 44.640406
O 7.062670 2.531461 44.140240
O 9.233818 4.147112 44.763703
H 8.505819 3.525220 44.490378
H 8.899760 5.068622 44.556186
H 8.994801 4.194580 46.435806
H 6.924966 2.784958 43.215219
H 13.066160 3.305340 44.537399
O 11.885930 4.266137 45.172295
H 10.943072 4.055024 44.924788
H 12.003742 4.130491 46.141117
H 12.203900 5.699983 44.514586
H 10.331189 2.387107 42.979199
H 1.338125 7.261486 44.550711
O 4.430960 6.519047 44.150761
O 2.205727 7.807180 44.689467
H 3.012093 7.269732 44.549208
H 2.360286 8.112586 46.359745
O 2.585872 8.319644 47.319657
H 5.213712 7.067649 44.458815
H 2.002881 9.287218 44.417806
O 8.463618 6.650252 44.333479
O 6.386946 8.118497 44.908954
H 7.628704 7.138967 44.541693
H 6.362736 8.113757 45.871925
H 9.217318 7.250443 44.666439
H 6.426217 9.059795 44.609327
O 12.403235 6.616021 44.145232
O 10.431165 8.098365 45.081902
H 11.656525 7.210641 44.407822
H 10.701537 8.074253 46.006494
H 10.430754 9.060438 44.776639
H 13.712637 7.422093 44.736810
O 4.892797 4.231082 47.637427
H 4.813120 5.200213 47.931740
O 2.517210 3.184330 48.562556
H 3.352454 3.685610 48.366204
H 2.312319 3.259188 49.555211
O 1.881091 3.020510 51.030694
H 2.626932 3.542256 51.481208
H 3.955085 5.278243 51.404396
O 4.041069 4.283367 51.710518
H 1.217610 4.033640 47.871514
O 8.756298 4.395504 47.363458
H 5.310892 3.598503 51.043255
H 7.986869 3.782327 47.626316
H 6.136107 3.192734 47.874842
O 6.964956 2.734060 48.191109
H 6.878396 2.887234 49.187199
O 6.198251 3.213996 50.674330
H 7.245557 4.273740 51.405899
H 8.190985 5.650589 51.335957
H 9.387355 3.672249 51.580136
O 8.121953 4.692887 51.717818
H 6.316680 2.351048 51.124093
H 9.718637 3.509512 48.437219
O 12.439679 3.948634 47.658415
O 10.393590 2.972240 48.929119
H 11.733679 3.596367 48.249510
H 10.343577 2.993666 50.538527
H 13.346812 3.678529 47.989443
H 12.695093 5.573361 48.244786
O 10.208545 3.107295 51.505417
H 2.572158 9.333979 47.429535
O 4.390430 6.622154 48.349994
H 3.665263 7.195407 47.964000
H 4.307488 6.612434 49.319031
O 4.177864 6.769236 51.014537
H 3.361711 7.282215 51.297954
H 2.156073 9.030708 51.057801
O 2.088259 8.252458 51.661135
H 4.989884 7.368099 51.226509
H 1.394836 7.699724 51.247604
H 1.227035 7.590712 47.961423
H 8.554393 5.983771 47.772855
O 6.334928 8.226766 47.583052
H 5.615261 7.617024 47.945857
O 8.552800 6.896157 48.101092
H 7.739217 7.360468 47.787240
H 8.461459 7.008745 49.780334
O 8.390680 7.012579 50.738421
H 7.079479 7.910106 51.291137
H 9.260496 7.366320 51.114109
O 6.262452 8.311392 51.624366
H 6.180518 9.132306 47.935336
H 13.504049 6.952972 48.306032
H 9.947785 7.549558 47.745640
O 10.851989 8.035569 47.662387
O 12.764587 6.429769 48.716771
H 11.544881 7.449032 48.089873
H 12.685172 6.307998 50.463217
O 12.654691 6.488720 51.440306
H 10.609425 8.907691 51.346478
H 11.285509 7.423896 51.561563
O 10.513459 8.024742 51.782982
H 1.232620 3.853141 54.378550
H 4.228808 4.395814 52.692277
O 2.113122 3.442262 54.621118
O 4.361686 4.820458 54.291647
H 3.474177 4.384127 54.519507
H 2.130290 3.415137 55.609962
H 5.487081 3.955423 54.872973
O 6.316578 3.480145 55.172707
O 8.320671 4.817982 54.268190
H 7.069918 4.047832 54.819725
H 8.208770 4.845517 53.266946
H 8.667836 3.039847 55.759454
H 8.462796 5.741874 54.579948
H 13.605824 4.727135 54.962560
H 12.553481 5.620829 51.971229
H 11.837870 5.554299 55.003516
H 11.529923 3.727121 52.088460
H 13.122085 3.686248 52.403117
O 12.279100 4.150412 52.645577
H 11.332182 4.138684 53.903721
O 10.922769 4.346736 54.797771
H 9.960995 4.498811 54.624446
H 13.564857 3.177009 54.898845
H 11.361892 3.208618 56.213779
H 4.191789 5.785931 54.431369
H 4.109161 7.246211 55.878725
H 1.358336 8.103457 54.452894
H 1.976235 8.717196 53.126634
O 4.119667 7.415258 54.887465
O 1.975433 8.821661 54.129649
H 3.395780 8.029190 54.600292
H 5.572284 7.761291 54.557189
H 9.529326 7.692754 55.042378
O 8.716873 7.146013 55.345977
H 7.256300 7.634459 54.779842
H 6.331998 8.062724 52.582775
O 6.505221 8.027376 54.272806
H 11.553619 7.558436 54.565723
O 12.502440 6.374628 55.112696
O 10.966357 8.327427 54.325249
H 10.832148 8.290323 53.342524
H 12.635158 6.493566 56.101271
O 2.219945 10.778932 3.399015
O 4.178805 11.636481 4.850182
H 3.022934 11.203405 3.897768
H 4.215474 11.575090 6.522988
H 4.261679 12.622198 4.882308
H 5.007083 11.290606 4.397810
H 2.236460 9.780925 3.606612
H 1.046822 11.292595 4.290134
O 6.297970 10.598561 3.729871
O 8.390063 11.746682 4.844384
H 7.090993 11.086299 4.106734
H 8.309568 11.820071 5.848033
H 9.242300 11.295990 4.691973
H 6.415423 10.614831 2.709341
O 10.771237 10.754762 4.102290
O 12.862045 12.214112 4.663175
H 11.569297 11.366335 4.290633
H 12.826012 11.854892 6.181895
H 12.834750 13.089569 4.230289
H 10.754892 10.696823 3.101021
H 13.642988 11.692957 4.332775
O 4.274396 14.238217 4.540614
O 2.084512 15.601705 4.575321
H 3.460191 14.781376 4.488772
H 2.123922 15.420749 6.299862
H 2.056072 16.474119 4.092939
H 5.097457 14.807419 4.666508
H 1.207615 15.145219 4.427929
H 4.565781 13.835222 3.016666
H 8.414273 13.228095 4.219859
O 8.344315 14.181565 3.928128
O 6.492062 15.713895 4.820906
H 6.441432 15.685686 5.841736
H 7.245763 15.200992 4.420500
H 8.612271 14.225341 2.951470
H 9.474480 15.196310 4.300198
H 12.862661 15.049883 2.913843
O 12.607967 14.569403 3.745743
O 10.316026 15.707516 4.533668
H 11.688651 14.928505 3.945563
H 10.379198 15.631903 6.084192
H 10.374520 16.559564 4.042858
O 10.515001 15.669300 7.059831
H 1.225224 11.023796 11.207147
O 4.357749 11.639876 7.521236
O 2.110568 10.463020 8.362945
H 2.934487 10.907977 8.018391
O 1.908940 10.335907 10.974241
H 1.969722 10.399405 9.974125
H 3.417235 11.224942 11.044880
H 5.181843 11.142423 7.720685
H 1.357793 11.057330 8.125853
O 4.236272 11.713616 11.316005
H 5.527791 10.869234 10.999147
O 8.390628 11.788936 7.498756
O 6.427913 10.239167 8.293809
H 6.522749 10.255144 9.293603
H 7.197034 10.816855 8.002717
O 6.433053 10.424804 10.860606
H 8.348273 12.761485 7.790809
H 7.805782 11.326949 11.219010
H 9.249496 11.414676 7.830369
O 8.544678 11.915347 11.533827
O 12.836035 11.808366 7.162575
H 9.969425 11.110820 11.084011
H 11.953215 11.508958 7.543609
O 10.651215 10.703378 8.212058
H 10.731915 10.691439 9.182921
O 10.788046 10.681782 10.741926
H 11.621315 11.187253 11.076282
H 10.624589 9.747157 7.938991
H 12.791676 12.988616 11.176390
O 2.095075 15.401085 7.260391
H 4.178214 13.383418 10.967370
H 4.301618 13.139373 7.926511
H 2.866010 14.864012 7.621973
O 4.165348 14.104782 8.131972
H 4.139894 14.173314 9.137241
O 4.162043 14.340458 10.721313
H 5.027844 14.802503 10.956152
H 2.875088 15.132226 11.367803
H 2.058642 16.505547 11.466999
H 5.379806 15.058604 7.663369
O 6.163967 15.608493 7.331251
H 8.544473 13.452885 10.972416
O 8.389549 14.350231 8.124081
H 7.589433 14.844640 7.808335
H 8.480221 14.394183 9.697633
O 8.497646 14.415485 10.684759
H 7.181562 15.113265 11.105643
H 9.284552 14.856989 7.875856
O 6.339708 15.560562 11.447192
H 6.103338 16.521875 7.628387
H 9.909902 15.222412 10.930172
H 13.670230 14.812920 10.515139
H 12.931642 13.425262 7.377054
H 11.384046 15.219427 7.246537
O 12.777284 14.409457 7.552949
H 12.790854 14.297150 9.236437
O 12.826629 14.363399 10.222597
H 11.488288 15.256531 10.613315
O 10.768821 15.762587 11.057548
H 13.669408 14.880574 7.446474
H 1.546955 9.777765 14.458760
H 4.164854 11.773837 12.310914
O 1.758580 10.726143 14.647167
O 4.147542 11.590365 13.873569
H 3.232791 11.183566 14.133905
H 4.155473 12.508311 14.237341
H 1.947964 10.677510 15.637461
H 5.452554 10.771850 14.375506
H 8.530697 11.758504 12.544250
O 6.338218 10.387407 14.663271
O 8.570431 11.704662 14.051617
H 7.710792 11.197553 14.269010
H 9.419378 11.158517 14.317213
O 12.702494 12.079039 11.654333
H 12.712209 12.885087 14.636002
H 13.570563 11.596100 14.394347
H 12.643640 12.222480 12.651658
O 10.759106 10.331576 14.846579
O 12.713135 11.993769 14.172928
H 11.613759 10.756225 14.541208
O 2.083052 15.564366 11.775268
H 4.368353 14.046375 15.746104
H 2.129715 15.677669 13.364225
O 4.359651 14.066976 14.732783
O 2.167623 15.653030 14.353821
H 2.879493 15.019568 14.576206
H 5.162095 14.589945 14.490644
H 9.537704 14.647649 14.214421
H 6.293447 16.271217 14.247432
H 6.402624 15.353037 12.437593
O 6.515450 15.336299 13.948020
H 8.717747 13.316349 14.578729
O 8.734144 14.280646 14.709862
H 7.398939 15.038940 14.266112
O 10.933049 15.549735 13.754459
H 10.593439 16.377613 14.231544
H 10.956231 15.745615 12.785369
H 12.204517 14.889353 14.586566
O 12.921722 14.399099 15.063113
O 2.106121 10.685177 17.168607
O 4.281191 11.694654 18.217999
H 3.009744 11.066752 17.447193
H 4.402679 11.866480 19.882534
H 4.354731 12.597969 17.832542
H 5.102443 11.203288 17.877739
H 2.185881 9.713915 17.449984
O 6.436857 10.629169 17.304787
O 8.448609 12.173847 18.042850
H 7.194207 11.240158 17.608600
H 8.446399 12.211537 19.061754
H 9.345565 11.823582 17.787400
H 6.398820 10.581297 16.310897
O 10.690228 11.002903 17.468932
O 12.909385 12.034736 18.253856
H 11.606871 11.446045 17.737104
H 13.043955 11.901185 19.905347
H 10.690434 10.856359 16.496835
H 13.006123 13.009567 17.952565
H 13.775552 11.600840 17.905168
O 4.470349 14.171031 17.317723
O 2.321432 15.466924 17.958147
H 3.623591 14.647825 17.477306
H 2.214116 15.468738 18.955687
H 5.225385 14.751236 17.700979
H 1.383705 15.186244 17.633990
H 8.626972 13.764291 17.642847
O 8.669635 14.719458 17.303552
O 6.459679 15.720801 18.106672
H 6.497819 15.697859 19.095946
H 7.319575 15.345780 17.781763
H 8.822812 14.612535 16.318895
H 9.977598 15.414136 18.083323
O 12.939969 14.530075 17.545744
O 10.827727 15.869041 18.389928
H 12.118214 15.045260 17.834797
H 10.843816 15.927273 19.360844
H 13.029614 14.537039 16.568494
H 2.460622 9.489301 21.142932
O 4.396562 11.967083 20.870949
O 2.020672 11.000210 21.653296
H 2.880829 11.466470 21.397201
O 1.971105 10.488829 24.172428
H 1.870183 10.745222 23.199955
H 3.348480 11.247942 24.587139
O 4.214888 11.683710 24.930191
H 5.227472 11.609619 21.362365
H 1.312208 11.428546 21.114751
H 1.254087 11.001498 24.676028
H 5.541679 10.926412 24.533676
O 8.632369 12.155178 20.689358
O 6.554567 10.969485 21.766985
H 7.386037 11.388809 21.407400
H 6.589674 10.759560 22.709559
O 6.462352 10.583287 24.317678
H 7.775352 11.416432 24.934807
H 9.486817 11.690733 20.972560
H 6.460810 9.647725 24.619453
H 8.699962 13.100221 21.032195
O 13.070169 11.943966 20.888072
H 10.680565 9.891008 21.327743
H 12.238236 11.481920 21.228923
O 10.801718 10.856300 21.587058
H 10.806807 10.877486 22.594206
O 10.804802 10.819840 24.255198
H 11.589806 11.395656 24.464110
H 9.991579 11.248761 24.643178
O 12.757186 12.370546 24.834806
O 2.105690 15.455688 20.620061
H 4.471495 13.312955 24.464915
H 3.000322 15.106066 20.971164
H 2.088907 16.242599 24.460621
H 4.390075 13.494437 21.256084
O 4.421569 14.477345 21.488882
H 4.438871 14.492795 22.467367
O 4.472297 14.268181 24.095723
H 3.134383 14.977431 24.550531
H 2.088835 16.450710 20.749584
H 5.235907 14.842475 24.510917
O 6.511955 15.780612 20.742552
H 5.686781 15.230429 21.060322
H 8.586262 13.433280 24.353803
O 8.716668 14.600772 21.355709
H 7.912132 15.170384 21.071165
H 8.567398 14.399450 23.065279
O 8.538356 14.386691 24.039147
H 7.172104 15.191628 24.640923
H 6.412801 16.704879 21.141160
H 12.920026 13.342685 24.535877
H 9.624521 15.015296 21.215987
H 9.941617 15.088041 24.394061
O 11.008198 15.828719 20.959355
H 13.073819 13.408817 21.209599
O 13.140692 14.426956 21.371168
H 11.850206 15.329218 21.180935
H 13.071660 14.613003 22.908487
O 13.003964 14.812511 23.897009
H 11.575517 15.252727 24.323476
O 10.748569 15.642496 24.661697
H 11.020020 16.702187 21.367947
H 4.130960 11.778928 25.917639
O 2.105052 10.633793 28.822657
O 4.050142 11.853839 27.438319
H 3.415590 11.340234 27.995221
H 4.164027 12.777286 27.756249
H 2.118334 9.704200 28.522118
O 8.601786 11.943263 25.129817
H 5.475957 11.145408 27.875413
H 8.578706 12.141249 26.090158
O 6.258083 10.667327 28.299357
O 8.384614 12.143883 27.644708
H 7.507962 11.705188 27.911162
H 9.178870 11.571871 27.973052
H 6.318428 9.720411 27.990497
H 12.569827 13.002837 27.882015
H 12.616911 12.366566 25.804380
O 10.421090 10.839153 28.465703
O 12.450062 12.079975 27.525007
H 11.270860 11.353168 28.109983
H 13.266420 11.559347 27.809819
H 10.571337 9.947016 28.087278
O 2.313753 15.383177 24.971469
H 4.260970 14.129362 29.379130
H 2.250740 15.511227 26.429506
O 4.309041 14.207609 28.395225
O 2.239750 15.585376 27.436655
H 3.021834 15.093776 27.798010
H 5.114523 14.732509 28.128341
H 6.295246 16.684395 27.843046
H 9.503779 14.917034 27.785450
O 6.379596 15.618911 25.057835
O 8.649383 14.577245 28.211165
H 8.594795 13.608851 27.969993
H 7.258202 15.365678 27.924743
O 6.357493 15.690544 27.553671
H 6.513034 15.621427 26.047968
H 10.741733 15.554827 26.231276
O 10.866741 15.640447 27.221194
O 12.939661 14.544004 28.216157
H 10.654967 16.595439 27.419424
H 12.147358 15.082949 27.840899
H 13.761777 14.781786 27.761456
O 1.988859 10.498895 31.442595
O 4.231517 11.800114 31.823543
H 2.927014 10.910845 31.628104
H 4.346471 11.731173 33.482012
H 4.236719 12.742874 31.517797
H 5.000519 11.257540 31.464979
H 2.140103 10.551333 29.782569
H 2.032751 9.515637 31.623917
O 6.270573 10.490819 30.930567
O 8.347451 11.883862 31.813774
H 7.091815 10.990437 31.238138
H 8.379474 11.996696 32.839870
H 9.210945 11.492864 31.508242
H 6.249601 10.511361 29.952619
O 10.649159 10.791690 31.000884
O 12.744438 12.212356 31.899980
H 11.391602 11.369086 31.318761
H 12.498379 12.217916 33.482012
H 10.661701 10.858758 29.996420
H 12.828634 13.089511 31.477807
H 13.511246 11.627878 31.603466
O 4.431176 14.215217 31.020262
O 2.350587 15.776457 31.545924
H 3.645509 14.839022 31.207596
H 2.275273 15.586547 33.223609
H 1.522391 15.271981 31.244150
H 2.218192 16.717637 31.252363
H 8.546837 13.355502 31.096269
H 5.275959 14.725369 31.214896
O 8.630930 14.306163 30.780592
O 6.586178 15.764284 31.692409
H 6.452792 15.738709 32.674276
H 7.372878 15.190926 31.488328
H 8.677654 14.406063 29.807583
H 9.820361 15.276663 31.380329
O 12.813984 14.625293 30.869160
O 10.625000 15.870036 31.593375
H 12.002457 15.120756 31.167767
H 10.687350 15.984802 32.577871
H 12.804424 14.585672 29.884610
O 4.293857 11.747033 34.472735
O 1.964264 10.577961 34.984978
H 2.785094 11.112049 34.752126
O 1.983452 10.633968 37.566161
H 1.945970 10.577493 36.570070
H 5.070867 11.224942 34.825556
H 3.313244 11.622202 37.962085
H 1.122660 11.077579 34.611008
O 4.094532 12.102916 38.356184
H 1.140494 11.099467 37.896759
H 5.510813 11.230033 38.113616
O 8.453801 12.023324 34.342353
O 6.411979 10.600259 35.232431
H 7.124506 11.218270 34.867156
H 6.466310 10.657905 36.234587
O 6.330199 10.764242 37.836372
H 8.642547 12.970649 34.615463
H 9.255561 11.466996 34.671073
H 7.677792 11.539449 38.125371
H 6.301877 9.762490 37.968472
H 9.788235 11.353928 37.933206
O 12.467692 12.215165 34.470105
O 10.478043 10.549928 35.028564
H 11.676675 11.610789 34.733017
H 10.538286 10.579541 36.039523
O 10.622635 10.885913 37.580868
H 11.415606 11.492337 37.723596
H 13.372667 13.102211 38.310397
H 10.432450 9.593415 34.771772
O 12.778363 12.294289 38.296119
H 13.818781 11.242616 37.786506
H 4.278637 13.260693 35.001833
O 2.171936 15.452410 34.178315
H 4.029406 13.583159 37.970888
O 4.291019 14.230023 35.189220
H 4.193439 14.367671 36.177850
H 2.961514 14.934065 34.525768
O 4.040930 14.572153 37.772872
H 4.942107 14.871152 38.104222
H 2.622778 15.332436 38.109751
O 6.481474 15.731393 34.266882
H 8.468193 13.507722 37.977812
H 5.703291 15.173603 34.610579
O 8.743499 14.511055 34.983690
H 7.893216 14.984746 34.714927
O 8.416997 14.494258 37.708996
H 8.567809 14.566126 36.740925
H 7.198216 15.260920 38.315926
H 9.518891 15.101092 34.689055
H 6.349834 16.643195 34.623998
H 9.916584 15.277307 38.073787
O 10.860881 15.899415 34.072517
H 12.802470 13.717062 34.936722
O 12.940021 14.706115 35.025290
H 11.705871 15.451415 34.391521
H 12.994712 15.511636 36.406408
O 12.892166 16.030977 37.265675
H 11.499494 15.804490 37.904274
H 10.802644 16.747952 34.554110
H 13.787426 14.934240 34.551480
H 1.563979 10.452954 42.762987
H 3.966779 11.961464 39.326885
O 3.835828 11.759674 40.955295
H 3.001530 11.404142 41.334364
H 3.951954 12.716305 41.259055
O 1.471311 10.671775 41.757181
H 1.602875 9.771386 41.317993
O 8.454931 12.094313 38.429239
H 5.253183 10.893990 41.193408
H 6.196144 9.558652 41.144400
H 8.495693 12.123107 39.407133
O 6.166125 10.517916 41.392873
O 8.337119 11.893694 40.958945
H 7.458102 11.442651 40.954007
H 9.081824 11.295288 41.201620