18432
Timestep: 1500000
O 1.890293 3.702370 4.065971
O 4.388629 4.385557 4.693645
H 3.507816 4.076761 4.364855
H 4.164889 4.065491 6.265079
H 5.097650 3.953020 4.187337
H 1.159356 4.121613 4.585139
H 1.960105 2.750541 4.374577
O 6.538967 3.281144 3.684381
O 8.964429 4.097236 4.386286
H 8.059368 3.749206 4.103946
H 8.997355 3.875683 6.194355
H 8.873599 5.022590 4.138515
H 6.521683 2.319728 3.960168
H 6.499066 3.246466 2.718111
H 10.526629 3.393831 3.702488
O 11.395019 3.224941 3.259082
O 12.988556 4.368664 4.985034
H 12.366343 3.889974 4.380140
H 12.708837 4.201144 5.949727
H 4.291512 5.887582 4.081754
O 4.123716 6.830571 3.731575
O 2.041918 8.199994 4.277250
H 2.802206 7.630836 3.984512
H 2.007494 8.095929 5.837500
O 1.822076 8.012513 6.814507
H 1.226918 7.665544 4.061618
H 4.852545 7.329717 4.238466
O 8.405914 6.736357 3.986156
O 6.185456 8.064079 4.733162
H 7.528907 7.079330 4.342529
H 6.200632 8.203552 5.713804
H 6.355308 8.932244 4.271264
H 9.123931 7.188366 4.470042
H 12.993582 5.906453 4.536462
O 12.883776 6.819231 4.099791
O 10.633819 8.011346 4.856075
H 12.011796 7.166158 4.457963
H 10.726494 8.102520 5.888527
H 10.719981 8.954002 4.527215
O 3.946243 4.103693 7.220114
H 2.117884 3.581884 7.339596
O 1.479431 3.320875 10.245552
H 3.860414 5.087229 7.416563
H 2.285054 3.769762 10.652979
H 3.928713 5.286499 10.944496
O 3.650240 4.367246 11.240564
H 5.088993 3.717799 10.977155
H 2.949486 2.488901 9.318426
H 4.367021 2.631485 8.680301
O 1.197372 3.356329 7.326281
H 1.217885 2.637449 10.894331
O 8.892730 3.942520 7.157544
H 5.599195 3.968729 7.744904
H 7.944485 3.748383 7.387219
O 6.368694 3.497582 8.145880
H 6.241759 3.495814 9.106521
O 6.013691 3.377720 10.680230
H 8.316982 5.525850 11.091834
H 8.712661 5.695265 7.370579
H 7.274165 4.219519 11.273169
H 9.348824 3.593743 11.390900
O 8.120246 4.645610 11.567148
H 6.108454 2.410206 10.850322
H 13.547019 3.710537 7.828531
H 9.884721 2.957491 8.172971
O 12.667756 4.178855 7.676867
H 11.906555 3.609400 7.951054
O 10.055712 2.910761 11.311181
H 13.098669 3.740024 11.147460
H 12.736532 5.712864 7.925398
H 11.507389 3.670678 11.476187
O 10.603405 2.562419 8.755897
H 12.558002 5.805041 11.226323
H 10.077458 2.637295 10.359588
H 1.370970 7.021523 10.913926
H 1.982312 8.883711 7.285774
O 3.912932 6.618187 7.741691
H 3.119785 7.098755 7.331956
H 3.800998 6.629544 8.709372
O 4.086507 6.767291 10.241643
H 3.285195 7.117876 10.745922
H 4.903355 7.255244 10.602225
H 1.978645 8.566965 10.934163
O 1.916383 7.654852 11.403321
H 5.419388 7.528013 7.553857
O 6.289764 7.905577 7.227829
O 8.578546 6.618158 7.717519
H 7.707847 6.976758 7.381303
H 8.668298 6.710668 9.395896
O 8.612908 6.786564 10.399046
H 7.103277 7.517035 10.711390
H 6.421007 8.807412 7.629689
H 9.425242 7.327629 10.720920
O 6.294123 7.971231 11.032032
H 13.568457 7.124316 7.754525
O 10.729263 8.094120 11.159078
O 10.708697 8.076679 7.395528
H 9.825126 7.582403 7.466846
O 12.770432 6.674589 8.158783
H 11.502260 7.509370 7.724907
O 12.853261 6.647593 10.801656
H 12.897829 6.539811 9.814353
H 11.594525 7.607095 11.004084
H 10.870918 9.054918 10.881910
H 2.308497 2.432661 13.669925
O 1.668164 5.433077 15.851136
O 2.747262 2.737367 15.219917
H 3.639808 4.399189 12.238307
O 3.803947 4.686046 13.805270
H 3.311567 4.229762 14.518189
H 3.897289 5.667837 14.087418
H 5.326133 3.955412 14.035325
H 1.822717 2.708906 15.582533
H 1.139454 5.027770 15.114286
H 6.292892 3.322835 15.863824
O 6.131415 3.375626 14.251246
O 8.416376 4.699643 14.007592
H 6.945057 3.949048 14.184430
H 8.311597 4.752994 13.013758
H 8.584290 5.635054 14.298520
H 9.500993 3.710642 14.657496
H 10.365793 2.350044 14.486976
H 12.714017 5.594356 14.617609
O 12.353572 4.119677 11.704046
O 10.203162 3.117253 15.051432
O 12.586723 3.967778 14.269824
H 12.546616 4.044643 13.257358
H 11.668686 3.710829 14.603047
H 4.109161 7.163341 15.560850
O 4.017562 7.150747 14.557486
H 3.111876 7.510992 14.370369
H 1.744197 7.807818 12.992289
O 1.647008 8.047687 13.947790
H 5.364245 7.763957 13.984303
H 8.501769 7.523160 15.514646
O 6.204694 8.195619 13.554657
H 6.333768 7.911329 11.980198
H 6.996395 7.781072 14.023868
O 8.618344 7.359852 14.561608
H 9.584539 7.608092 14.357305
O 10.958978 8.129587 13.807465
O 12.872801 6.527457 14.823304
H 10.858917 8.005157 12.836385
H 11.718640 7.580985 14.147328
H 12.746686 6.627835 15.822867
O 2.063202 3.842678 17.851707
O 4.521610 4.762835 18.159393
H 3.590609 4.326798 18.103178
H 4.605936 5.008433 19.746273
H 1.956525 4.382541 16.994985
H 5.155045 4.172573 17.707475
H 1.234869 4.093182 18.343030
H 2.494289 2.254335 17.898018
O 6.392132 3.378927 16.869009
O 7.916585 5.084481 17.885597
H 7.299347 4.530933 17.364722
H 8.134401 4.958909 19.535171
H 6.695751 2.450806 17.171822
H 9.125572 3.902650 17.867983
O 8.415197 4.779524 20.471612
O 9.857283 3.212178 17.862629
O 12.246280 4.370122 18.212557
H 11.326090 3.987361 18.055957
H 12.431528 4.359441 19.179086
H 10.011503 2.947727 16.957347
H 12.537231 5.810286 17.639588
H 13.689853 3.432314 17.812196
H 4.444567 6.210593 17.456219
O 4.297230 7.121236 17.065495
O 2.273489 8.280610 18.174277
H 2.985515 7.769487 17.727712
H 2.394203 8.216211 19.843981
H 5.046568 7.683692 17.459859
H 1.401112 7.852081 17.888114
H 8.022954 6.006482 17.537490
O 8.361910 7.613482 17.288697
O 6.012522 8.724521 18.131285
H 7.624865 8.130287 17.687880
H 6.218839 8.712563 19.099421
H 9.215683 7.943488 17.656560
O 12.758072 6.760437 17.393258
O 10.823272 8.323718 18.195264
H 11.952713 7.340083 17.638357
H 10.886766 8.356209 19.178979
H 10.908511 9.258090 17.874943
O 4.535037 4.991557 20.746639
O 2.322524 3.852466 21.446976
H 3.093090 4.389051 21.124299
O 2.266888 3.665469 24.063668
H 2.329566 3.709155 23.075295
H 3.121195 4.033554 24.505735
H 4.598013 5.446873 24.841100
H 2.575363 2.913468 21.188813
H 5.661196 3.625943 24.582135
H 5.562766 3.983563 21.259805
H 7.647534 4.378049 20.947623
O 6.350487 3.423336 21.550144
H 6.409211 3.327583 22.524223
O 6.461883 3.214919 24.142637
H 7.688153 4.162061 24.654572
H 8.586547 5.552607 24.546692
H 6.581125 2.291916 24.490637
O 8.518540 4.640068 24.920605
H 13.602768 4.029068 21.052290
H 9.788148 3.850372 24.198853
H 10.716801 2.600952 24.357005
H 9.858924 4.073745 20.926635
O 12.820642 4.556915 20.748245
O 10.589968 3.538829 21.296372
H 10.508678 3.414394 22.300700
H 11.972151 4.131232 21.085752
O 10.599508 3.425827 23.817980
H 11.984357 4.336190 24.438812
H 13.591639 4.029103 24.628071
O 12.834900 4.655532 24.856840
H 2.166324 9.351306 20.964166
H 4.493618 5.945040 21.066585
H 2.421159 9.121009 24.659016
O 2.244968 8.313393 20.817952
O 4.436484 7.368275 21.821691
H 4.492485 7.160483 22.785812
H 3.574079 7.763672 21.548538
O 4.616081 6.916040 24.348707
H 3.784561 7.357595 24.629623
H 1.609594 7.736284 24.697671
H 5.394755 7.549206 24.598250
H 5.692835 8.172053 21.198397
H 8.632910 6.184717 21.036818
O 6.501886 8.531090 20.727044
O 8.771128 7.126930 21.384871
H 8.016595 7.658340 21.054646
O 8.761384 7.102867 23.983146
H 8.689685 7.087940 23.000662
H 7.464388 7.781930 24.670205
H 9.611516 7.585442 24.176313
O 10.920461 8.292451 24.867816
H 13.800684 7.536221 21.198986
H 10.170749 7.736891 21.035854
H 11.011496 9.227874 24.654519
H 13.016661 6.051048 21.302690
O 10.982108 8.284285 20.787114
H 13.149443 6.158036 24.515800
O 13.049382 7.003964 21.613534
H 11.771004 7.754105 21.041850
O 13.156264 7.106461 24.210096
H 13.230989 7.063195 23.231145
H 11.756233 7.814368 24.576031
O 4.454702 4.506702 25.126300
H 2.502916 2.697789 28.885128
O 2.704817 2.982254 27.958698
H 1.903279 3.505346 27.728483
H 4.511420 4.577850 26.123453
O 4.798114 4.462212 27.703480
H 3.962419 3.874481 27.847071
H 4.515902 5.376185 28.024979
H 6.318074 4.100386 28.025836
O 7.141332 3.713984 28.505326
H 7.979873 3.949619 28.017805
H 9.085620 4.479327 26.479645
O 9.448475 4.422581 27.409072
H 9.211837 5.331264 27.710387
H 13.476448 3.639628 27.908640
O 12.215764 4.546788 27.379680
H 12.395627 4.542478 26.393769
H 11.279726 4.283259 27.470856
O 2.468466 8.151228 24.993578
H 1.457131 7.861851 27.738602
O 4.398532 7.009471 28.496653
O 2.313574 8.384442 27.504103
H 3.688946 7.605993 28.118778
H 2.391623 8.315726 26.513856
O 6.668210 8.264743 24.979658
H 8.816004 6.824965 29.318147
H 6.677185 8.250043 25.994747
H 5.878960 7.592348 27.979846
H 7.549063 7.637871 27.909711
O 6.663030 8.123987 27.669591
O 8.787386 6.786786 28.299203
H 9.606387 7.233708 27.939960
H 10.898357 8.121420 26.499347
O 13.101438 6.931358 28.396964
H 13.097951 6.913922 29.361513
H 12.850030 6.009480 28.071450
H 11.734744 7.622600 27.797655
O 10.886714 8.044071 27.490826
O 2.192609 2.810866 30.511787
O 4.245056 4.426011 31.441001
H 3.461945 3.917116 31.079241
H 4.339839 4.331103 33.188764
H 5.133653 3.993760 31.146111
H 1.324924 3.188985 30.816207
O 6.572508 3.523721 30.992616
O 6.960853 5.225711 32.937347
H 7.005678 4.562130 32.236100
H 6.909515 3.642912 30.031601
H 9.165217 4.066150 31.888689
H 9.356158 5.415747 31.165706
O 8.664862 2.770170 33.294234
H 6.632617 2.549516 31.152535
H 7.930484 3.025204 33.876465
H 8.349857 5.682566 33.755522
O 9.709064 4.493700 31.190762
O 12.352393 4.642541 31.874234
H 11.364965 4.547832 31.920705
H 12.674423 4.533302 32.802537
H 13.374849 3.726077 31.126730
H 10.529809 3.622501 29.856316
O 11.133353 2.943007 29.528285
H 11.182845 2.316352 30.298061
H 10.240499 3.380368 33.853069
H 4.234532 5.978394 31.257364
O 4.202042 6.985321 31.126623
O 1.964423 7.986951 31.597975
H 2.818510 7.526707 31.439448
H 1.842586 8.220877 33.185391
H 5.040455 7.369424 31.526287
H 1.177757 7.392722 31.255061
H 4.310980 7.055011 29.492789
H 6.666517 6.029826 32.502508
H 6.595895 8.796562 31.644714
O 8.865445 7.036829 30.905777
O 6.598408 7.904002 32.044754
H 8.055419 7.358044 31.393512
H 6.637592 7.970782 33.045977
H 9.616593 7.667008 31.235573
H 12.720735 6.266044 31.367653
O 12.819617 7.172627 31.019439
O 10.702851 8.643264 31.838738
H 11.995282 7.672871 31.260308
H 10.609457 8.580906 32.834714
O 4.245738 4.318451 34.133022
O 2.176392 2.917930 34.927532
H 2.995091 3.417655 34.609353
H 4.139610 5.258004 34.423842
H 2.013833 3.085188 35.895454
O 2.000714 3.254842 37.428100
H 2.804149 3.717018 37.790769
H 4.272833 5.285117 37.998177
H 2.098903 2.289300 37.730860
H 5.714683 3.816405 37.803030
H 5.834002 3.788691 34.539218
O 6.597998 3.198936 34.838926
H 6.624565 3.332751 35.826550
O 6.483474 3.334076 37.333872
H 7.741902 4.168711 37.926436
H 8.448841 5.624239 37.739265
O 8.541465 4.734095 38.192040
H 9.632595 4.070613 37.200561
H 6.537428 2.389069 37.690492
H 9.769480 5.280934 34.282929
O 13.806890 4.649495 34.107216
O 10.433440 3.679434 36.800790
O 10.888715 4.039837 34.208457
H 10.870815 3.922460 35.209894
H 13.458806 3.933385 34.691428
H 11.814085 4.413131 37.648464
H 10.478111 2.768986 37.179146
H 13.317151 4.153719 38.084374
H 13.641233 2.832105 36.288212
O 13.114004 2.514889 35.520739
O 12.558463 4.830355 38.164575
O 2.002145 8.233477 34.153152
H 1.354301 7.528270 38.045773
H 2.009074 9.158691 34.506506
O 4.194497 6.764025 34.950554
H 4.143180 6.768201 35.966607
H 3.393785 7.328277 34.652398
O 4.192215 6.843964 37.480407
H 3.321435 7.268526 37.768872
H 1.994836 9.020851 38.111465
H 4.973720 7.433917 37.731288
O 9.082953 6.021222 34.319871
H 6.710009 8.643847 34.773502
H 5.759503 7.396800 34.763598
O 6.707752 7.682000 34.577337
O 8.520899 7.006403 36.809945
H 8.649117 6.703866 35.884747
H 7.123894 7.765077 37.431366
H 9.371339 7.422606 37.081385
O 6.339255 8.185761 37.858388
H 10.807271 9.262640 37.860155
H 13.808531 7.543781 34.437495
H 13.166983 6.041131 34.434336
H 9.900620 7.337266 34.262317
H 12.848850 6.316146 37.563070
O 10.482522 8.150236 34.406282
O 10.701620 8.269293 37.833600
H 11.629913 7.985079 37.660350
H 11.361375 7.748015 34.526208
O 12.954399 7.023179 34.689393
O 13.058819 7.212562 37.206718
H 13.090617 7.113291 36.228303
O 4.269222 4.347209 38.366468
H 4.218464 4.486857 39.335354
O 2.000406 3.451429 41.584130
O 4.240061 4.714232 40.972614
H 3.319460 4.357977 41.191318
H 4.309672 5.695627 41.196458
H 2.090086 3.391142 42.538507
H 6.802428 3.136357 42.759781
H 5.549929 3.754561 41.179219
H 8.568904 4.807051 39.903558
O 6.445317 3.324363 41.240574
O 8.586547 4.742576 40.892467
H 7.214621 3.964057 41.056080
H 8.499564 5.670748 41.216374
H 9.743118 3.968962 41.635741
O 10.504524 3.434291 41.988881
O 12.486610 4.637881 40.771630
H 12.286694 4.666685 39.801995
H 11.738231 4.179584 41.259205
H 13.824071 3.861794 41.031185
H 10.216292 2.918864 42.759674
H 4.251195 7.194351 42.485289
O 2.104031 8.090970 38.388526
O 4.313083 7.263195 41.503876
O 1.871789 8.112145 40.988033
H 3.397965 7.539458 41.248658
H 1.958402 8.117395 39.999766
H 1.205871 7.416703 41.278907
H 8.386989 7.408338 42.631075
H 7.186157 8.028479 40.936796
O 8.380578 7.249790 41.680713
H 9.267432 7.525534 41.262417
O 6.450805 8.371025 40.380853
H 5.626716 8.065362 40.835984
H 6.538454 8.200169 38.874602
O 12.770381 7.081634 41.603993
O 10.630485 7.964814 40.480381
H 12.741455 6.991545 42.594401
H 10.663155 8.026297 39.521721
H 11.503799 7.604050 40.852099
H 12.682321 6.184420 41.230562
H 10.410618 9.434138 41.153895
O 2.339044 3.451692 44.162221
O 4.773881 4.570454 44.429913
H 3.918815 4.181159 44.109593
H 4.462815 4.651869 46.159634
H 2.476021 2.490679 44.424185
H 1.435101 3.678232 44.469960
O 4.217392 4.707419 47.093559
H 5.521378 3.994646 44.154619
O 6.947313 3.235312 43.761539
O 8.795643 4.772314 44.712115
H 8.083986 4.169627 44.314592
H 8.486075 5.669004 44.669552
H 8.596188 4.388538 46.283094
O 8.473100 4.214129 47.252033
H 6.733601 2.345177 44.130580
H 12.678834 3.426253 43.990577
O 11.449999 4.545890 44.740811
H 10.460879 4.480528 44.639945
H 11.615553 4.442822 45.684587
H 12.209661 2.501049 46.357191
O 13.609487 3.107301 43.825785
H 4.386695 6.153766 44.215706
O 4.101355 7.082976 44.100598
O 1.758901 8.146095 44.813731
H 2.632979 7.700416 44.599470
H 1.384101 8.035963 46.373199
H 4.870782 7.640105 44.506848
O 8.205177 7.326136 44.330707
O 5.949906 8.644139 45.115955
H 7.401511 7.735771 44.703227
H 6.075046 8.552907 46.093782
H 9.022024 7.732557 44.783910
H 12.205917 6.106738 44.310148
O 12.577747 7.008707 44.178390
O 10.405233 8.301668 45.231545
H 11.848088 7.604097 44.487467
H 10.530475 8.192936 46.228003
H 10.412310 9.278157 45.007861
O 2.238224 3.074489 47.852360
H 2.957318 3.656678 47.473093
H 2.356491 3.074530 48.869805
O 2.355440 3.014879 50.359030
H 3.040085 3.604389 50.827385
H 4.017911 5.423639 51.255479
O 4.167315 4.505687 51.603211
H 4.083738 5.658101 47.329021
H 5.382585 3.826053 47.700096
H 7.595221 3.816685 47.457406
H 5.394801 3.623843 50.996192
O 6.163659 3.233469 48.007835
H 6.223224 3.216290 49.007291
O 6.211084 3.242184 50.593690
H 7.285192 4.117804 51.394357
H 8.095115 5.543904 51.355167
H 9.581257 3.283729 48.039691
H 9.320206 3.827523 51.189305
H 6.299252 2.275618 50.886920
O 12.351110 4.197218 47.452053
O 10.341637 2.810231 48.511525
H 11.587345 3.735877 47.952477
H 10.192289 3.008678 50.094122
H 13.210885 3.814229 47.800909
O 10.109307 3.243327 51.049998
H 12.707965 5.693999 47.994879
H 11.602680 3.948919 51.510107
H 13.251196 3.871786 51.648933
O 1.263272 7.891706 47.358574
H 1.426460 8.809862 47.610794
O 3.735084 7.053419 47.971536
H 2.826618 7.344335 47.745015
H 3.764025 7.047084 48.986786
O 3.855773 6.862630 50.605200
H 3.034238 7.203935 51.052247
H 4.693519 7.354497 50.940940
H 1.649603 8.801637 51.023925
O 1.594806 7.908401 51.465885
H 5.210312 7.986806 47.800106
H 6.236835 9.136175 48.107042
H 8.244873 5.863829 47.767394
O 6.151222 8.236219 47.704594
O 8.308930 6.766031 48.198058
H 7.543729 7.324812 47.895726
H 8.207587 6.930605 49.744570
O 8.254874 6.964928 50.717792
H 6.884846 7.733391 51.042288
H 9.077773 7.449165 51.031259
O 6.037570 8.080645 51.399283
H 9.781532 7.414819 47.945302
H 12.714478 5.858025 51.254033
H 10.500575 9.073759 51.332467
H 11.333834 7.720908 51.164088
O 10.636998 7.946399 47.743784
H 13.505477 7.143024 47.865958
O 12.702734 6.644413 48.319536
H 11.442973 7.405696 48.022612
H 12.844234 6.760496 49.894638
O 12.841567 6.755841 50.890828
O 10.488625 8.094004 51.476860
H 10.463341 9.419613 48.284147
H 1.178259 3.973903 54.635844
H 1.884826 3.622501 56.052525
H 3.997673 4.552843 52.579110
O 1.965977 3.483874 55.067256
O 4.073040 4.642022 54.197952
H 3.270722 4.216695 54.631935
H 4.056330 5.617939 54.383677
O 8.044854 4.646106 51.787597
H 5.525424 3.874796 54.301549
O 6.359514 3.363061 54.491986
O 8.611062 4.791832 54.296784
H 7.141845 3.916749 54.312204
H 8.409094 4.867431 53.312480
H 8.825800 3.129054 55.458783
H 8.512180 5.737020 54.603292
H 11.254544 3.544091 55.885538
H 13.836226 4.727981 55.046109
H 10.237678 2.224703 52.225917
H 12.110985 5.754257 54.973885
O 12.395217 4.340512 51.961383
H 11.649351 4.330922 53.487818
O 11.274444 4.474065 54.392672
H 10.302966 4.686122 54.240837
H 13.696264 3.233236 54.744634
H 1.272353 7.875991 54.455901
H 4.214761 7.192589 55.728082
H 1.728570 8.378084 53.105875
O 4.218700 7.254766 54.693076
O 1.980732 8.481741 54.066944
H 3.415767 7.801319 54.484383
H 8.591214 7.202295 56.052311
H 6.197698 8.054862 52.405699
H 5.589681 7.650121 54.192491
H 7.305040 7.806954 54.367455
O 8.679376 7.303707 55.058797
O 6.470345 8.080004 53.860607
H 9.514071 7.805624 54.845554
H 12.890136 6.529026 56.150232
O 11.056577 8.240652 54.207696
H 11.784287 7.591468 54.495733
H 10.890151 8.090620 53.257656
O 12.839362 6.378755 55.168658
O 2.253517 10.703457 3.364339
O 4.335511 11.553597 4.545638
H 3.132242 10.983804 3.783197
H 4.512102 11.342725 6.105877
H 4.392188 12.574594 4.503487
H 5.203640 11.134885 4.272581
H 2.145548 9.707193 3.568888
O 4.528057 11.363433 7.103395
H 1.219594 11.419666 4.340329
H 6.654209 10.534001 2.788613
O 6.655286 10.470068 3.780225
O 8.717379 11.961518 4.668878
H 7.465927 11.023353 4.069847
H 8.697224 12.033559 5.679476
H 9.561921 11.496023 4.425118
O 10.793116 10.418210 3.831826
O 12.837670 11.969976 4.401689
H 11.566369 11.004570 4.114702
H 12.914087 11.756537 6.024825
H 12.777356 12.921790 4.084195
H 10.807527 10.374519 2.822338
H 13.717651 11.577164 4.211703
O 13.053075 11.653871 7.007567
O 4.441126 14.101510 4.242739
O 2.152221 15.285313 4.159674
H 3.587609 14.614487 4.127224
H 2.060355 15.316171 5.765057
H 2.208893 16.235436 3.836200
H 5.107764 14.728878 4.647998
O 2.115971 15.333437 6.776559
H 1.288002 14.909476 3.825792
H 2.884439 14.801852 7.113835
H 4.973284 13.884746 2.722831
H 8.479613 13.327610 4.096076
O 8.283954 14.288466 3.799510
O 6.460036 15.703733 4.929445
H 6.459934 15.583860 5.910189
H 7.228879 15.197464 4.493047
H 8.588854 14.366165 2.845381
H 9.603207 15.055949 4.283706
O 12.701810 14.512930 3.646004
O 10.458827 15.514794 4.599187
H 11.848447 14.864151 4.024216
H 10.506832 15.647209 6.185575
H 10.396411 16.422858 4.173471
H 13.916952 15.317979 4.512803
H 12.886341 15.055949 2.821276
H 1.762265 10.747498 7.825281
H 1.720128 10.623250 10.995358
O 2.537462 10.141772 8.084579
H 3.360202 10.623541 7.749267
O 2.433827 10.042606 10.631082
H 2.494381 10.110564 9.600520
H 3.516935 11.157402 11.151529
H 4.254211 12.937307 7.557476
O 4.344665 11.748195 11.344910
H 5.394227 10.972137 7.371966
O 8.873805 11.848411 7.219943
H 5.786962 11.021137 10.736017
H 8.917552 12.753559 7.614677
O 6.871614 10.316245 7.974439
H 6.822122 10.387411 8.974656
H 7.614556 10.958663 7.690123
O 6.607025 10.537034 10.513297
H 7.893404 11.340041 10.940320
O 8.706814 11.853952 11.222414
H 6.526504 9.571803 10.799086
H 9.680292 11.297109 7.542812
H 10.080227 11.118261 10.909428
H 12.208533 11.198585 7.425317
O 10.965440 10.589242 8.063377
H 10.949746 10.583117 9.066153
O 10.901382 10.603767 10.630921
H 11.732846 11.072703 10.947012
H 13.065435 12.777008 11.127384
O 13.016251 11.897002 11.539362
H 10.850608 9.597470 7.823354
H 4.212232 13.264436 10.759039
O 4.146503 13.909654 7.760505
H 4.138810 14.043119 8.755790
O 4.253687 14.174776 10.368369
H 5.087516 14.616471 10.702716
H 2.937967 14.917234 10.865099
O 2.092569 15.370654 11.219202
H 2.097405 16.312960 10.893474
H 2.185188 16.743396 7.422913
H 8.666041 13.404085 10.910339
H 5.490000 14.751161 7.652727
O 6.293969 15.343529 7.480868
O 8.603215 14.308766 8.026757
H 7.753647 14.797885 7.788002
H 8.563929 14.443106 9.722320
O 8.603676 14.382440 10.674341
H 7.186926 14.971308 11.140768
O 6.309560 15.374504 11.462052
H 6.155653 16.267927 7.871720
H 9.376263 14.801327 7.652031
O 10.653000 15.724383 7.160050
H 13.607281 14.567121 7.588256
H 12.802435 13.195195 7.503783
H 10.080689 15.095382 10.954883
O 10.897074 15.657242 11.189274
H 11.523801 15.225055 7.313341
O 12.731352 14.143276 7.792130
H 12.953527 14.252942 9.422451
O 13.001121 14.270441 10.401830
H 11.666481 15.110898 10.831744
H 13.897924 14.658762 10.641040
H 2.134414 10.457585 15.915917
H 4.282126 11.822861 12.314010
O 2.100693 10.506934 14.912285
O 4.263278 11.694121 13.942436
H 3.491841 11.223609 14.382629
H 4.304190 12.592677 14.370369
H 1.922983 9.597003 14.586611
H 6.394440 10.748957 15.886578
H 6.482090 9.642036 13.905869
H 5.728064 10.976746 14.037253
H 8.785283 11.837386 12.218230
O 6.608255 10.587200 14.280906
O 8.777693 11.817611 13.769828
H 7.924483 11.327733 13.924982
H 9.564742 11.298450 14.049245
H 10.991391 9.660411 14.216392
H 13.742320 11.583639 14.550847
H 12.990812 11.982926 12.532982
O 10.881842 10.588833 14.446019
O 12.945782 12.046275 14.161301
H 11.698022 11.159269 14.307515
H 12.908394 12.986598 14.521026
H 4.246092 14.335774 15.807341
H 2.203933 15.296630 12.721063
O 4.395224 14.056127 14.865867
O 2.304563 15.179206 13.701513
H 3.069970 14.685770 14.022529
H 5.161600 14.610521 14.559520
H 2.195091 16.541799 14.757773
O 8.847494 14.280358 14.704717
H 8.820979 13.363485 14.312333
H 6.582971 16.296743 14.202151
H 6.431726 15.296455 12.427619
H 9.690703 14.722869 14.337443
O 6.541531 15.298205 14.039233
H 7.458439 14.967458 14.331446
H 10.703671 16.579948 14.080833
H 12.028003 14.994291 14.568408
H 10.981493 15.552360 12.846182
H 13.656158 14.854001 14.598336
O 10.890407 15.609234 13.828667
O 12.797204 14.456406 14.986275
O 2.054483 10.768265 17.454880
O 4.275474 12.148999 17.930837
H 2.847523 11.360050 17.536687
H 4.369447 11.986892 19.556372
H 4.301636 13.122513 17.686916
H 2.164637 9.883241 17.834522
H 5.025889 11.760037 17.424685
O 6.320587 10.904763 16.887105
O 8.575725 11.714421 17.927357
H 7.252727 11.109977 17.236336
H 8.642347 11.671429 18.901757
H 9.433961 11.240351 17.560565
O 8.829595 11.756653 20.506037
H 6.012963 9.617945 17.692270
O 10.724802 10.682866 17.109182
O 12.724684 11.844444 18.238416
H 11.423124 11.241284 17.516182
H 12.858184 11.890877 19.793708
H 12.753713 12.836916 18.032132
H 13.591434 11.421649 17.961354
H 10.786807 10.765640 16.118614
O 4.369534 14.734536 17.277989
O 2.011720 14.469297 18.333339
H 3.511181 14.944184 17.768990
H 1.995518 15.066741 19.090855
H 5.176304 15.183464 17.679314
H 1.225417 14.730453 17.805450
H 8.518437 13.217303 17.538668
O 8.725380 14.195484 17.325531
O 6.715240 15.533110 18.222086
H 6.689186 15.531477 19.206391
H 7.530702 14.977608 17.986946
H 8.803080 14.235383 16.338121
H 9.934111 14.938059 18.134016
O 12.858338 14.415573 17.598899
O 10.688183 15.533460 18.427567
H 12.045953 14.868118 18.015749
H 10.647461 15.597801 19.403573
H 12.784485 14.582696 16.634992
O 4.319925 11.967468 20.517227
H 1.212854 11.309942 20.994951
O 2.031312 10.885688 21.399219
H 2.886414 11.348791 21.060856
O 2.369805 10.550451 24.054620
H 2.153267 10.590408 23.131135
H 3.672478 11.495731 24.544925
H 5.197752 11.655563 20.879307
O 4.490449 11.971084 24.852504
H 1.569203 10.940521 24.537858
H 5.778161 11.157110 24.460388
O 6.516965 11.075911 21.547628
H 7.382637 11.374516 21.132170
H 6.628821 10.994595 22.514907
O 6.617487 10.706374 24.159770
H 9.605977 11.346691 21.078952
H 7.971924 11.392074 24.894264
H 8.847905 12.710801 20.757775
H 6.636874 9.751643 24.439508
H 6.610256 9.499179 20.995379
O 12.926806 11.995817 20.788185
H 10.178955 11.355325 24.742804
H 10.901177 9.625761 21.383961
H 12.141398 11.508448 21.216386
O 10.892356 10.597758 21.719861
H 10.874559 10.671491 22.696456
O 10.973902 10.981354 24.297578
H 11.816957 11.443757 24.596269
O 13.195909 12.238831 24.936988
H 4.708905 13.564674 24.397695
H 2.262913 16.608298 20.916838
O 2.104590 15.621309 20.745622
H 2.904323 15.173256 21.078952
H 4.211058 13.366927 21.030125
O 4.205529 14.307133 21.462127
H 4.323976 14.247575 22.435671
O 4.568041 14.441006 23.978274
H 3.249530 15.212047 24.352722
H 5.351864 15.043524 24.224016
O 2.436899 15.664942 24.725671
H 2.370636 16.584557 24.390574
H 1.242732 14.732611 24.359950
O 6.476807 15.482244 20.846381
H 8.687479 13.380110 24.541874
H 5.534184 15.046499 21.063159
O 8.654194 14.209134 21.441729
H 7.795138 14.697961 21.236623
H 8.728663 14.073744 23.060839
O 8.679478 14.247342 24.024371
H 7.443309 15.322763 24.433298
H 9.435704 14.855401 21.261893
O 6.679955 15.860415 24.734344
H 6.383567 16.361667 21.299424
H 13.695854 15.013424 21.108613
H 13.087129 13.157687 24.544390
O 10.623407 15.750516 20.974445
H 9.995758 15.086690 24.328041
H 12.762175 13.592966 20.978086
O 12.802128 14.559830 21.262750
H 11.546777 15.406353 21.155673
H 12.918190 14.539880 22.878273
O 12.987684 14.679412 23.851656
H 11.581909 15.320196 24.404762
O 10.711877 15.676434 24.721763
H 10.535091 16.686639 21.236195
H 2.249327 9.741901 28.127987
H 4.450132 11.895835 25.836916
O 2.150518 10.706374 28.458908
O 4.372396 11.910010 27.484026
H 3.556159 11.472632 27.887813
H 4.375473 12.891574 27.746151
O 8.763281 11.828111 25.329906
H 5.532004 11.097319 28.096828
H 8.603061 11.695929 26.295794
O 6.268890 10.558442 28.517854
O 8.519976 11.851969 27.947991
H 7.666510 11.414591 28.218039
H 9.270714 11.239884 28.177028
H 6.316381 9.654519 28.141479
H 13.430034 11.681754 27.944243
H 10.740495 9.581195 28.134305
H 12.938807 12.292089 25.906141
O 10.743778 10.475610 28.524814
O 12.609084 12.074508 27.500302
H 11.496003 10.977446 28.055282
H 12.513280 12.994939 27.916457
H 2.425693 15.686350 26.268489
O 4.498413 14.343707 28.106572
O 2.368026 15.683842 27.277582
H 3.182965 15.175064 27.576701
H 5.318379 14.831310 27.822229
H 4.344676 14.427415 29.086486
H 6.518401 16.587765 27.788446
H 8.679837 13.441184 28.167659
H 6.688058 15.771224 25.738512
O 8.587111 14.393757 28.442311
H 7.374944 15.173198 27.804561
O 6.620667 15.690375 27.357997
H 9.377442 14.843910 28.015021
O 10.598174 15.704317 27.291716
H 10.582685 15.707117 26.307626
O 12.654883 14.581763 28.305521
H 13.539275 14.777644 27.905535
H 11.917377 15.065341 27.835078
H 10.600174 16.652806 27.652137
O 2.112145 10.505476 31.026077
O 4.218361 11.771995 31.830761
H 2.885331 10.938188 31.493843
H 4.256949 11.750703 33.429258
H 4.309867 12.659818 31.340562
H 5.053948 11.238543 31.538548
H 2.029824 9.541820 31.235627
H 2.201702 10.703399 29.449049
O 6.199186 10.354978 31.054132
O 8.263028 11.830853 31.606220
H 6.991061 10.963912 31.279314
H 8.381758 11.742537 32.598984
H 6.052597 10.452977 30.038293
H 9.132906 11.520989 31.231076
O 10.628639 11.140019 31.004876
O 12.749353 12.327147 31.914013
H 11.479130 11.642788 31.291039
H 12.539949 12.257206 33.549720
H 10.817733 10.899222 30.060029
H 13.537275 11.812361 31.558410
H 10.712647 9.625003 31.638022
O 4.282644 14.106527 30.693015
O 2.129541 15.349129 31.365940
H 3.487866 14.621837 30.953479
H 2.166622 15.343121 32.930708
H 5.070447 14.584679 31.048242
H 1.281856 14.949200 30.956370
H 2.079393 16.326726 31.135885
H 8.456329 13.431968 31.251046
O 8.677478 14.387282 31.051562
O 6.308842 15.382029 31.626779
H 6.246477 15.425486 32.621149
H 7.241700 15.116557 31.407593
H 8.732509 14.395915 30.052159
H 12.831002 13.262569 31.511939
H 10.008220 15.182706 31.558839
O 12.776125 14.635545 30.871833
O 10.760702 15.782132 31.887779
H 11.971792 15.109557 31.272408
H 10.738752 15.790532 32.882202
H 12.650216 14.686470 29.893418
O 4.226044 11.606622 34.403177
O 1.923989 10.634216 35.131407
H 2.826254 11.017870 34.966241
O 1.815029 10.560950 37.759182
H 1.771938 10.611525 36.779160
H 3.176867 11.356141 37.964127
H 5.063857 11.135877 34.606623
H 1.235547 11.178577 34.649293
O 3.961506 11.836336 38.342162
H 1.105880 11.135702 38.175283
H 5.450719 11.035837 37.905556
O 8.491768 11.967409 34.241651
O 6.506707 10.417452 34.924534
H 7.176053 11.101053 34.624665
H 6.435367 10.503318 35.911891
O 6.318125 10.734373 37.489455
H 9.259329 11.476073 34.603250
H 7.463773 11.580489 38.230159
H 6.377875 9.749776 37.662277
H 8.587983 12.934215 34.512716
H 9.748350 11.335083 38.084535
O 12.464608 12.112716 34.508969
O 10.500113 10.604233 35.322325
H 11.716845 11.496023 34.712629
H 10.415387 10.665074 36.314875
O 10.618945 10.955863 37.843130
H 11.395532 11.543739 38.080038
H 10.475188 9.672602 35.032735
O 2.202348 15.377479 33.956773
H 4.272602 13.200737 34.886629
O 4.121126 14.179267 35.126802
H 4.165294 14.264550 36.145586
H 2.934880 14.779160 34.323726
O 4.214884 14.344874 37.644342
H 5.106594 14.801210 37.903039
H 4.152355 13.400643 37.932860
H 3.046537 15.282105 38.327814
H 2.228366 16.628131 38.247506
H 2.341869 16.766438 34.619686
H 5.514202 15.031041 34.639281
O 6.282327 15.541977 34.229177
H 8.449867 13.525066 38.038438
O 8.669631 14.480031 35.008215
H 7.829244 14.897984 34.703474
O 8.564698 14.450048 37.646644
H 8.568647 14.455648 36.657788
H 9.507352 15.033374 34.838444
H 7.185439 15.227389 37.939339
O 6.346230 15.712833 38.246810
H 6.183871 16.492741 34.393433
H 13.852176 14.778752 34.937972
H 9.793790 15.235322 38.148835
H 11.372094 15.761716 38.037903
O 10.852609 15.806632 34.539486
H 12.770586 13.574299 35.112454
O 13.024918 14.494905 35.407076
H 11.708382 15.307538 34.734044
H 13.047433 15.598209 36.768238
O 13.019071 16.079862 37.616716
H 10.866764 16.757688 34.889252
H 1.505797 9.542579 41.540389
O 1.310475 10.546192 41.749457
H 3.750701 11.792645 39.288990
O 3.539122 11.783778 40.916077
H 2.650022 11.437224 41.207005
H 3.785894 12.627385 41.381648
H 5.067278 10.947988 41.180771
H 1.502663 10.647983 42.706832
O 8.281646 12.021659 38.571521
H 6.237348 9.894208 40.925179
H 8.227692 11.983159 39.548276