18432
Timestep: 2000000
O 1.984780 3.571635 3.855853
O 4.419039 4.555800 4.405654
H 3.598858 4.021626 4.116861
H 4.294105 4.440910 6.114333
H 2.036281 2.674656 4.324278
O 1.470497 3.430129 7.085553
H 1.341141 4.134663 4.379663
H 5.228588 3.978143 4.166852
H 2.421256 3.711141 7.026009
O 4.097965 4.320640 7.112858
O 6.663953 3.115686 4.155824
H 8.227215 3.532104 4.559850
H 9.143958 3.603559 6.520469
H 9.084755 4.935536 4.567375
O 9.172612 3.952791 4.744529
H 6.665847 3.022744 3.163637
H 10.498451 3.488229 3.949287
O 11.426450 3.480143 3.546479
O 12.924011 4.440705 5.535257
H 12.171777 4.093414 4.964827
H 12.651179 4.248899 6.494638
H 12.967300 5.963348 4.886420
H 4.343724 6.075795 3.860158
O 4.369666 7.022418 3.669728
O 2.155597 8.325933 4.098474
H 2.931743 7.689830 3.994723
H 1.827313 8.090515 5.781691
O 1.758081 7.879432 6.765685
H 1.294136 7.854852 3.821366
H 5.237154 7.368663 4.112519
O 8.724680 6.570298 4.293112
O 6.531170 7.998486 4.788559
H 7.913447 7.065901 4.540224
H 6.453086 7.986394 5.776826
H 6.610431 8.916933 4.456718
H 9.481519 7.175717 4.520134
O 12.903851 6.820193 4.339525
O 10.806795 8.218585 5.092973
H 12.119124 7.346936 4.650187
H 10.849725 8.184673 6.091402
H 10.811604 9.135313 4.714089
H 12.650872 6.535439 2.762617
H 4.014078 5.259756 7.481233
H 1.860240 3.978780 10.399512
H 3.554290 5.405237 11.043286
H 4.931829 3.924375 10.945185
O 3.342389 4.457199 11.273987
H 4.240030 2.404755 9.421328
H 1.287862 3.565788 8.033020
O 1.169653 3.444331 9.899660
O 8.922396 3.799703 7.415958
H 5.534691 3.498292 7.516986
H 7.998900 3.529543 7.666274
O 6.323066 3.121936 7.996818
H 6.248666 3.512681 8.921636
O 5.836854 3.643797 10.660333
H 8.671310 5.507732 7.554827
H 8.347820 5.364262 11.127823
H 7.107179 4.375606 11.368404
H 9.235960 3.586170 11.493367
H 5.888816 2.654807 10.889966
H 13.412572 3.558509 8.187664
O 12.570383 4.106213 8.163900
H 11.895106 3.507542 8.546159
O 10.079121 3.042173 11.383891
H 13.085552 3.780151 11.332944
H 10.073134 2.823242 8.355083
H 10.085978 2.677993 10.451954
H 12.477972 5.915685 11.434731
O 10.707731 2.405960 9.003396
H 12.830474 5.740408 8.360156
H 11.486369 3.821026 11.515316
H 1.948854 8.703990 7.269521
O 3.959000 6.755047 8.043871
H 3.204683 7.232665 7.517915
H 3.803160 6.879351 9.003663
O 3.948045 6.918742 10.671387
H 3.315643 7.447975 11.233882
H 4.896328 7.179792 10.917736
H 1.347920 7.498855 11.614859
H 1.905243 9.033519 11.555101
O 6.393577 7.873416 7.413592
H 5.477796 7.456658 7.600535
O 8.628226 6.485285 7.801592
H 7.734100 6.849357 7.569588
H 8.649768 6.696982 9.406963
O 8.542160 6.798536 10.379166
H 7.102011 7.356133 10.910740
H 6.355814 8.841157 7.746069
O 6.289090 7.816584 11.295135
H 9.269629 7.456652 10.635394
H 6.526258 9.457299 11.186353
H 13.532052 7.238769 8.059470
H 9.882070 7.482495 7.743901
O 10.650064 8.112049 7.644032
H 11.183551 7.688088 11.388751
O 12.821469 6.711816 8.583381
H 11.477210 7.632999 7.958581
H 12.729723 6.787334 10.094581
H 10.754346 9.182029 11.212627
O 12.591157 6.836734 11.112817
O 10.384804 8.292664 11.446533
H 10.655130 9.604932 8.101258
H 2.181791 2.343062 14.097995
H 3.972606 2.559701 15.697417
O 1.198543 4.471933 15.475794
H 3.135165 4.516615 12.241865
O 3.225406 4.820464 13.926090
H 2.446196 4.629664 14.515820
H 4.506236 3.922791 14.081173
H 3.661565 5.639591 14.263865
H 5.661590 3.607453 15.976608
O 8.040960 4.597997 11.699877
O 5.320058 3.328920 14.182532
O 7.650695 4.679093 14.339163
H 6.153303 3.920060 14.133615
H 7.936320 4.761072 13.379510
H 7.821395 5.577322 14.720781
H 9.126509 3.711696 14.940749
H 12.427621 5.749254 14.709407
O 12.357367 4.313349 11.725243
O 9.896090 3.249561 15.301379
O 12.245255 4.136569 14.302155
H 12.229035 4.179491 13.319218
H 11.287015 3.942080 14.600678
H 9.940965 2.398111 14.771247
H 4.255319 6.946193 15.939973
O 2.010856 8.117270 12.039841
O 4.048541 7.093504 14.979199
H 3.177031 7.622708 14.938506
H 1.859232 8.166974 13.592962
O 1.729437 8.259746 14.572428
H 5.320764 7.739961 14.154495
O 8.226601 7.103181 15.154307
H 6.912941 7.750170 14.464126
H 6.349469 7.668963 12.275402
O 6.208038 8.108050 13.834771
H 8.970546 7.668185 14.738458
H 10.337524 8.112827 13.087182
O 12.452694 6.734115 14.933059
H 11.200795 7.757706 14.373875
O 10.382655 8.230103 14.064084
H 13.669747 7.855805 14.370297
H 12.478739 6.788105 15.912845
O 3.827332 4.317185 18.797304
H 2.964957 3.981973 18.369385
H 4.592691 3.991176 18.265089
O 1.665547 3.149521 17.939331
H 3.726263 4.743256 20.286502
H 1.706344 3.388523 16.988970
H 4.289454 5.765713 17.927689
H 2.804435 2.529410 20.261136
O 5.708450 3.628227 16.953777
O 7.720592 4.777221 18.278654
H 7.019424 4.443143 17.670019
H 7.873740 4.693745 19.903709
H 9.172919 3.926977 18.321696
H 7.999462 5.707841 17.935699
H 6.137691 2.724866 17.236012
O 9.904379 3.295102 18.150753
H 9.788635 3.075237 17.223249
O 12.316329 4.493777 18.388237
H 11.409309 4.025041 18.306423
H 12.553651 4.465817 19.343190
H 13.678395 3.815156 17.735224
O 4.485022 6.635754 17.487861
O 2.298364 7.863213 18.343271
H 3.193917 7.513214 17.989796
H 2.069649 8.360955 19.898422
H 5.188195 7.070561 17.994336
H 1.628813 7.205220 17.999089
H 1.783338 9.458527 17.877490
O 8.560888 7.100228 17.670980
O 6.490593 8.134279 18.601849
H 7.788186 7.577506 18.131315
H 6.366713 8.370603 19.548365
H 6.290318 8.903660 18.012867
H 9.442682 7.437486 18.051637
H 8.299926 7.185463 16.138259
H 12.501663 6.116659 17.996258
O 12.639000 7.047594 17.604600
O 10.721445 8.427551 18.553679
H 11.892702 7.593310 17.998928
H 10.556323 8.492042 19.532664
H 10.683529 9.388715 18.179965
O 3.674639 4.862158 21.262390
O 2.511702 3.704621 23.358567
H 2.906916 4.093963 22.523610
H 3.015716 4.102529 24.105248
H 3.738774 5.819399 21.491809
H 5.040491 3.892878 21.588202
H 1.094999 3.792658 24.121269
H 6.519708 2.611792 24.649479
O 8.006575 4.634423 20.874683
H 7.214531 4.192056 21.323002
O 5.878290 3.422745 21.818155
H 5.985638 3.535805 22.777114
O 6.461376 3.581680 24.404572
H 5.621233 3.880612 24.792118
H 9.548090 4.058660 21.139349
H 10.481769 2.761812 24.324681
H 10.935945 2.346077 20.616586
H 13.595041 4.193284 21.181698
H 9.663936 4.107242 24.709344
H 13.503858 4.166219 24.532953
O 12.793121 4.721301 20.903361
O 10.406500 3.682281 21.464947
H 10.265274 3.669722 22.452797
H 11.937474 4.321435 21.276114
O 10.379739 3.721952 24.100976
H 11.917621 4.305228 24.431915
O 12.747888 4.794311 24.685633
H 1.856735 9.476359 20.977431
O 1.788291 8.495258 20.826994
H 1.621542 9.152795 24.516826
O 3.898917 7.353519 22.116037
H 3.853638 7.287152 23.128613
H 3.097489 7.885501 21.801547
O 3.956651 7.120674 24.668704
H 3.120239 7.608425 24.887069
H 4.762731 7.698174 24.862877
H 5.321132 7.972110 21.634555
H 8.243589 6.176337 21.498858
H 6.146712 9.266984 21.522623
O 6.198930 8.326401 21.281134
O 8.454405 7.079676 21.901464
H 7.646704 7.595842 21.662859
O 8.641530 7.058306 24.511592
H 8.544309 6.904399 23.547453
H 9.465862 7.652223 24.567452
H 7.226095 7.867826 24.673564
O 6.454263 8.443045 24.958843
H 13.598060 7.637676 21.257530
O 10.715151 8.488124 24.774762
H 12.668729 6.243886 21.398300
H 9.810842 7.870042 21.447431
O 10.519020 8.472396 21.094384
H 12.842704 6.354070 24.253121
O 12.716726 7.227467 21.557068
H 11.401173 7.941824 21.248078
O 12.866395 7.331231 24.079722
H 12.924523 7.345328 23.072593
H 11.585381 8.053902 24.489323
H 10.739968 9.480686 24.548600
H 4.124347 5.501745 25.195151
O 4.028252 4.505225 25.272746
H 1.949734 3.034514 28.211516
O 2.647116 2.615503 28.789498
H 4.094664 4.395427 26.242012
O 4.462011 4.264113 27.891953
H 3.815891 3.506027 28.253438
H 4.107610 5.147888 28.112347
H 8.713371 5.628581 25.377843
H 7.733486 4.380161 25.292505
O 8.599060 4.680672 25.716419
H 6.107051 4.354721 27.954541
O 7.079036 4.243859 28.168260
H 7.522875 5.087092 27.933393
H 9.409115 4.217847 27.147941
H 9.568506 3.469572 28.612467
H 7.404470 2.676628 27.609397
H 13.770499 3.485207 27.636579
O 10.072111 3.833246 27.803784
O 12.547664 4.622683 27.319632
H 12.567517 4.672094 26.332850
H 11.621660 4.283302 27.559091
O 1.580767 8.282491 25.018921
O 3.822016 6.882620 28.283557
O 1.884187 8.550043 27.619330
H 3.111970 7.540595 27.989200
H 1.700613 8.578458 26.663896
H 3.991451 7.151727 29.235146
H 1.202058 7.873521 27.872087
H 8.362045 6.888893 29.051547
H 9.217232 7.065117 27.744560
H 5.407403 7.462937 27.870805
H 7.043064 7.522102 27.758391
O 8.376731 6.626539 28.095739
H 6.422641 8.315701 25.977613
O 6.213513 8.001795 27.608863
H 11.420719 7.664753 27.699435
H 10.647761 8.202272 26.359391
H 12.779152 6.995862 29.266708
O 12.848844 7.071046 28.289752
O 10.543735 7.937404 27.295868
H 12.789949 6.124458 27.916625
H 10.353438 9.370473 27.884049
O 1.959763 3.404099 31.186067
O 4.146370 4.796328 31.552893
H 3.321814 4.244537 31.325556
H 4.447372 4.773678 33.185585
H 4.986631 4.387323 31.170954
H 2.002341 2.442673 31.447902
H 2.469616 2.970643 29.653613
O 6.587251 4.025421 30.757721
H 6.900405 5.102148 31.957100
H 9.066130 4.565763 32.251512
O 8.637999 2.954535 33.271724
O 6.902042 5.715290 32.731178
H 6.783075 3.060041 30.858332
H 6.891553 4.251869 29.789897
O 9.203007 2.871324 30.100810
H 8.978375 5.864180 31.443416
H 9.237904 3.746467 30.560076
H 7.924705 3.282707 33.856914
H 8.182596 2.392513 32.599433
O 9.623615 5.144625 31.657029
O 12.207032 4.536664 31.721753
H 11.253960 4.701025 31.874433
H 12.556874 4.381254 32.613317
H 13.646721 3.879939 30.934966
H 12.466868 6.034773 31.165614
H 9.833715 2.381611 30.671582
H 4.056999 6.374212 31.093893
O 4.067079 7.361530 30.901642
O 1.620524 8.097485 31.440906
H 2.598648 7.915121 31.202836
H 1.743196 7.914642 33.022385
H 4.845041 7.836083 31.300617
H 6.207066 9.474781 31.361176
H 6.697981 6.564235 32.308279
O 8.411577 7.368177 30.680981
O 6.311655 8.524433 31.733288
H 7.658780 7.943560 31.059555
H 6.594978 8.587053 32.704904
H 9.236881 7.859512 30.995792
O 12.568745 6.982671 30.816678
O 10.659070 8.616287 31.729817
H 11.813799 7.508806 31.124814
H 10.488780 8.515955 32.706506
H 10.536571 9.593121 31.527526
H 1.785856 2.598699 37.604635
O 4.491786 4.782775 34.174075
O 2.176474 3.709211 34.848236
H 3.049825 4.205176 34.677346
H 1.921663 3.729564 35.796727
O 1.520801 3.531590 37.386857
H 2.286907 4.117269 37.740439
H 4.716704 5.714746 34.480235
H 3.812161 5.828134 37.580390
H 5.140281 4.048568 37.706207
O 3.731186 4.911634 37.974451
H 5.713787 4.116842 34.537536
O 6.518582 3.584808 34.913013
H 6.319689 3.484131 35.899849
O 6.023057 3.634915 37.531366
H 7.414039 4.373805 38.052152
H 5.980787 2.667186 37.757688
H 8.342243 5.679109 38.033034
H 9.468062 5.514801 34.564665
H 9.466936 4.004968 37.470059
H 13.571605 2.848020 36.544370
H 10.213798 3.660057 34.027324
O 10.364848 3.729026 37.082673
O 10.775479 4.356487 34.463039
H 10.726306 4.167312 35.415857
H 13.261573 3.893387 34.616840
H 11.386283 4.429058 38.116877
H 10.452296 2.781648 37.332866
O 13.164301 2.583069 35.678493
O 13.656341 4.530320 33.941291
H 1.980154 9.521380 37.877898
O 2.047779 7.910321 33.956671
H 2.082804 8.842151 34.231110
O 4.602756 7.261466 34.700149
H 4.347807 7.398107 35.675823
H 3.763555 7.449338 34.242645
O 4.116457 7.421489 37.193484
H 3.349414 7.937965 37.585196
H 5.003281 7.767617 37.580283
O 2.009725 8.595356 38.233349
H 1.279168 8.005011 37.854775
H 8.125747 6.118009 33.970289
O 8.811411 6.215184 34.692993
H 6.116390 7.962878 34.388862
O 6.996449 8.412115 34.137815
O 8.559148 7.039625 37.070871
H 8.570917 6.815632 36.107854
H 7.115621 7.775428 37.668238
H 9.338553 7.641237 37.275725
O 6.376844 8.292840 38.069348
H 6.847189 9.374741 34.315754
H 9.795236 7.609658 34.437139
H 13.021386 6.043976 34.473880
H 12.548841 6.182418 37.775631
O 10.510526 8.545424 38.080402
O 10.530278 8.293834 34.314525
H 11.297402 7.994773 37.805430
H 11.370164 7.796284 34.479861
O 12.726704 6.908176 34.756809
O 12.701017 7.095463 37.376817
H 12.651946 6.926161 36.392438
H 13.470393 7.517027 34.634516
H 10.738945 9.513955 37.906255
H 2.157153 3.674235 42.665109
H 3.882385 5.001313 38.954931
O 2.232223 3.602395 41.689702
O 4.168644 4.910734 40.508693
H 3.361633 4.504711 40.955356
H 4.293665 5.847434 40.827937
H 1.273098 3.757875 41.424022
O 8.300950 4.740748 38.357137
H 5.476317 4.009471 41.149049
H 8.525991 4.842419 39.986091
O 6.328080 3.554813 41.450456
O 8.525223 4.779975 40.978800
H 7.154356 4.032864 41.173882
H 8.494112 5.731889 41.278338
H 12.881541 4.211047 38.426348
H 9.643418 3.797429 41.781876
O 12.114212 4.800947 38.650053
O 10.430805 3.257840 42.128568
O 12.376146 4.846494 41.241917
H 12.178838 4.795668 40.274040
H 11.721286 4.258201 41.682172
H 13.834460 4.176012 41.447946
H 1.568250 7.807755 41.179382
O 4.317577 7.364359 41.424395
O 2.080154 8.588983 40.835733
H 3.485687 7.917518 41.159036
H 1.984637 8.580446 39.843238
H 4.270322 7.364430 42.432592
H 8.358873 7.576413 42.678406
H 7.228449 8.154304 41.075994
H 9.208687 7.705330 41.271769
O 8.369516 7.298097 41.734454
H 5.648926 8.089328 40.903929
H 6.505074 8.289156 39.043580
O 6.466595 8.585358 40.577797
H 10.488984 8.376859 39.731946
O 12.570587 7.363365 41.787109
H 11.307482 8.003736 41.124591
H 12.449471 7.327770 42.772396
O 10.486528 8.474677 40.696138
H 12.415955 6.392156 41.524580
O 2.244728 3.621392 44.285678
O 4.508759 4.916113 44.714078
H 3.731083 4.254693 44.644760
H 4.315566 5.348926 46.343886
H 2.237631 2.605870 44.332673
H 1.320863 3.790184 44.653679
H 5.398878 4.459965 44.593707
O 6.676336 3.535495 44.042801
O 8.895379 4.725459 44.821471
H 8.109987 4.150538 44.535658
H 8.617941 4.764592 46.416567
H 8.578643 5.642999 44.634080
H 6.559415 3.522100 43.045445
H 6.651673 2.566825 44.234037
H 12.951591 3.683105 44.456248
O 11.629386 4.689880 44.979971
H 10.648222 4.590373 44.892764
H 11.790978 4.726067 45.928250
H 11.937884 2.612175 46.566256
H 10.153623 2.742118 42.939654
O 13.836200 3.323196 44.200020
H 4.208894 6.426723 44.208991
O 4.137063 7.401873 44.062934
O 2.007826 8.452576 45.220499
H 2.818015 7.987488 44.869320
H 1.683625 8.886295 46.764488
H 4.948970 7.885495 44.443377
H 1.233240 7.837609 44.930253
O 8.274854 7.276551 44.347519
O 6.206350 8.695103 45.071985
H 7.466794 7.775913 44.684439
H 5.980449 8.672768 46.019035
H 9.049551 7.739610 44.737842
H 6.223849 9.630249 44.678725
H 10.435206 9.375267 44.920747
H 12.106639 6.305880 44.569889
O 12.319706 7.242429 44.370963
O 10.384395 8.464503 45.332966
H 11.547976 7.767576 44.757868
H 10.373854 8.520691 46.346823
H 13.760470 7.986026 44.496193
H 2.233139 2.591539 50.666116
O 3.994716 5.260527 47.283406
H 2.717662 4.339198 47.626681
O 1.912821 3.749981 47.891346
H 1.991872 3.674259 48.891799
O 2.057189 3.569840 50.543449
H 2.806589 4.081662 50.994064
H 3.953822 5.769344 51.376056
O 4.162033 4.838314 51.645635
H 6.330281 2.523402 50.877378
O 8.502555 4.802216 47.405912
H 5.344685 4.287588 47.845366
H 5.418548 3.878378 51.021139
H 7.582077 4.420300 47.599338
O 6.155795 3.766446 48.050968
H 6.123666 3.668424 49.065626
O 6.190047 3.451008 50.575331
H 7.488285 4.313565 51.207409
H 9.500656 3.839508 48.182927
H 8.227369 5.802525 51.216755
O 8.222815 4.854101 51.620268
H 9.643162 4.044645 51.225566
O 12.416467 4.180327 47.620486
O 10.139705 3.160765 48.561661
H 11.576785 3.867795 48.125946
H 10.428810 3.208446 50.143140
H 13.227545 3.774772 48.048992
O 10.332663 3.348466 51.130402
H 12.751214 5.909779 51.329863
H 12.453820 5.849849 47.893322
H 11.754341 3.898217 51.563127
O 1.511167 9.088012 47.746464
H 3.789022 6.180383 47.594639
O 3.501882 7.473918 48.256623
H 2.702209 8.051809 48.086588
H 3.587759 7.289163 49.227117
O 3.703299 7.319344 50.807420
H 2.928115 7.775206 51.210133
H 4.588577 7.756145 51.068027
O 1.641145 8.963181 51.351224
H 5.110352 8.468304 48.088297
H 3.106602 9.546814 50.158520
H 8.274649 6.432769 47.832496
O 6.000666 8.701535 47.780001
O 8.234123 7.366663 48.157934
H 7.292768 7.761057 47.958153
H 8.337535 7.322016 49.725635
O 8.305401 7.233811 50.698745
H 6.925836 7.929007 51.123086
H 9.139404 7.590755 51.079829
H 9.523427 8.068461 47.939569
O 6.088963 8.345052 51.439606
H 6.243805 9.585813 48.204609
O 10.683068 8.083493 51.683337
O 10.475015 8.498824 47.839171
H 10.831049 9.083334 51.460166
H 13.239110 7.278387 47.771296
O 12.509338 6.781767 48.263245
H 11.162419 7.805674 48.034413
H 12.819013 6.728748 49.903574
O 12.846439 6.838762 50.888112
H 11.462934 7.529662 51.385562
H 1.374254 3.998952 54.235203
H 4.282198 4.778975 52.602084
O 2.161364 3.552141 54.665258
O 4.405761 5.013866 54.293412
H 3.601657 4.479926 54.526356
H 2.029409 3.544108 55.650491
H 5.770518 4.065326 54.685658
H 9.220507 3.262214 55.700796
O 6.574766 3.487949 54.907708
O 8.734658 4.861258 54.062497
H 7.398279 4.053667 54.690838
H 8.419610 4.903320 53.096863
H 8.715469 5.784516 54.459122
O 9.126560 2.331784 55.498879
H 11.350413 3.657724 55.973739
H 13.630961 4.886440 55.009547
H 13.612899 3.342614 54.706378
H 13.333670 4.018305 51.919219
O 12.450392 4.454954 52.057159
H 11.759406 4.379220 53.425345
O 11.287066 4.338140 54.324546
H 10.320331 4.542797 54.091869
H 11.949448 5.777477 54.937987
H 1.113511 8.402410 54.199797
H 4.228993 5.990051 54.321075
H 4.165472 7.537105 55.667206
H 1.794861 9.179164 53.011472
O 4.077651 7.695484 54.696605
O 1.792712 9.104266 53.989015
H 3.315720 8.349203 54.489348
H 9.546197 7.706617 54.840954
H 6.153784 8.363002 52.419338
H 5.610493 8.055504 54.374745
H 7.259355 7.745603 54.520696
O 6.542734 8.280795 54.066182
O 8.679856 7.243827 55.124791
H 8.703854 7.039438 56.093095
O 10.934410 8.488241 54.266497
H 10.921157 8.364522 53.278006
H 11.648626 7.896481 54.588838
O 12.644220 6.458401 55.179529
O 2.696289 10.818738 3.222268
O 4.593362 11.664076 4.759978
H 3.448764 11.082958 3.815262
H 4.447950 11.513578 6.345072
H 4.737873 12.665876 4.589836
H 1.349455 11.407633 4.081877
H 2.478355 9.849096 3.511580
H 5.458086 11.246494 4.412020
O 6.753908 10.513240 3.815331
O 8.879568 11.770840 4.929314
H 7.524103 11.015485 4.241087
H 8.766382 11.701496 5.958065
H 6.830764 10.629066 2.837739
H 9.676678 11.263859 4.626620
O 10.942802 10.559313 3.896573
O 12.797010 12.276359 4.681582
H 11.675029 11.133124 4.268034
H 12.547203 12.156323 6.238399
H 12.816710 13.130467 4.224986
H 10.982048 10.664908 2.938428
H 13.621546 11.731841 4.544320
O 4.632332 14.195413 4.219715
O 2.425974 15.552175 4.457450
H 3.830679 14.741684 4.398327
H 2.363379 15.709280 6.126039
H 2.452756 16.427215 3.982809
H 1.568217 15.090858 4.147755
O 2.449742 15.671567 7.092464
H 5.430506 14.765013 4.507157
H 8.961592 13.355103 4.611064
H 8.893639 14.357487 3.372006
O 8.820519 14.308257 4.344492
O 6.657967 15.574802 4.995347
H 6.694501 15.554630 5.968190
H 7.502254 15.072382 4.687927
H 10.657330 16.900459 4.286213
H 10.028362 15.385247 4.518057
O 12.677326 14.548270 3.427027
O 10.830486 15.974902 4.652446
H 11.921254 15.016311 3.876269
H 10.824755 15.889947 6.340922
O 4.367164 11.459963 7.330353
O 2.291568 10.094021 8.088548
H 1.656516 11.192820 10.811677
H 3.119512 10.663797 7.824390
O 2.221201 10.388468 10.606182
H 2.245179 10.382680 9.622177
H 3.555318 11.090208 11.227634
H 4.298521 13.189403 7.674952
H 1.603351 10.736064 7.829025
H 5.198414 11.083367 7.745423
O 4.347173 11.574970 11.628584
H 4.400480 13.062176 10.963769
O 8.527116 11.823754 7.482888
H 8.674227 12.772113 7.805742
H 5.711029 10.863642 11.304267
H 6.439629 10.399753 9.304910
H 7.226300 10.924566 7.999061
O 6.590526 10.425771 10.948603
H 7.968812 11.324550 11.251024
O 6.458357 10.357246 8.345310
H 9.327654 11.304729 7.809117
O 8.745505 11.888245 11.535502
H 10.105729 11.161481 11.094980
O 12.509492 12.069146 7.217715
H 11.739144 11.541643 7.574635
O 10.718835 10.583929 8.336018
H 10.838673 10.694902 9.362265
O 10.985835 10.713378 10.865080
H 11.768105 11.263450 11.169958
H 12.918485 12.924424 11.276604
H 3.191144 15.117052 7.373150
H 2.003564 15.998991 10.698943
O 4.362677 14.111042 8.027562
H 4.402164 14.078592 9.052260
O 4.404937 14.001706 10.595074
H 2.854201 14.669534 10.857711
O 1.926023 15.037184 11.025076
H 5.139324 14.579200 10.994689
H 1.170220 14.879553 7.838916
O 6.594517 15.519842 7.556947
H 5.741976 14.993333 7.659625
H 8.650945 13.547581 11.210331
O 8.778202 14.276508 8.207851
H 7.901576 14.700171 8.023348
H 8.590668 14.354564 9.827032
O 8.606326 14.463432 10.818833
H 7.144020 15.075481 11.217060
H 6.408672 16.473814 7.764493
H 9.522761 14.885867 7.850002
O 6.323271 15.559425 11.538439
H 13.661202 14.973629 10.941393
O 10.798556 15.829140 7.321023
H 12.780073 13.533724 7.819851
H 13.756837 14.882827 7.771366
H 9.877618 15.567669 10.892903
H 11.634196 15.388054 7.631204
O 12.878471 14.489977 8.113274
H 12.810263 14.459223 9.696995
O 12.759452 14.513423 10.702147
H 11.510060 15.486222 10.960939
O 10.713923 16.103942 11.083232
H 1.517945 9.859796 14.754212
H 4.097535 11.637239 12.623590
O 1.575439 10.787575 15.082320
O 3.860101 11.694012 14.158394
H 2.991176 11.271226 14.492163
H 3.866328 12.634128 14.385143
H 1.579795 10.634036 16.065203
H 5.374911 10.950176 14.356786
H 8.717158 11.796917 12.547757
O 6.279419 10.605621 14.580598
O 8.555924 11.878714 14.065312
H 7.723662 11.340511 14.250300
H 9.379130 11.424004 14.434167
H 6.316158 9.714326 14.172866
H 10.696525 9.802614 14.591279
O 13.162510 12.041666 11.674831
H 13.733760 11.607362 14.751809
H 13.146443 12.100076 12.652588
O 10.827774 10.699463 14.954366
O 12.939106 12.037866 14.333716
H 11.652924 11.225738 14.637953
H 12.870796 12.994644 14.641852
H 4.095176 14.226050 15.642785
H 2.006696 15.320932 12.602122
O 4.194771 14.238913 14.628074
O 2.092076 15.451901 13.604711
H 2.902275 14.887037 13.870498
H 5.013627 14.816114 14.491202
H 2.342313 16.857134 14.353849
H 9.317369 14.946908 14.314544
H 8.554543 13.453388 14.356893
O 6.300245 15.557788 14.114283
H 7.107793 15.068698 14.416918
H 6.441420 16.565902 14.189741
O 8.529010 14.398357 14.719072
H 6.304338 15.430092 12.543752
O 10.627806 15.799146 13.698807
H 13.579588 14.924807 14.498144
H 10.728097 15.906026 12.701184
H 10.524189 16.761947 14.059758
O 12.663408 14.623870 14.812261
H 11.982503 15.163710 14.326667
O 1.585698 10.404957 17.608552
O 3.846014 11.711260 17.782059
H 2.477317 10.890596 17.691861
H 4.211959 11.768559 19.325087
H 3.949831 12.656404 17.481506
H 4.625045 11.147624 17.506018
O 4.223743 11.956887 20.301775
O 6.026736 10.285330 17.200499
O 8.054725 11.695123 18.095641
H 6.763170 10.843646 17.637283
H 7.985493 11.723597 19.081836
H 9.004420 11.425583 17.902215
H 8.016655 13.277632 17.635627
H 6.205275 10.481667 16.267281
O 10.526491 10.928016 17.547138
O 12.667962 12.082009 18.334673
H 11.353432 11.455987 17.834287
H 12.794503 12.049091 19.899116
H 12.640382 13.011016 17.905900
H 10.656972 10.843821 16.579795
H 13.523046 11.630106 18.050462
O 3.880799 14.260956 17.071424
O 1.501901 14.552363 17.944404
H 3.009806 14.480739 17.482307
H 1.681159 14.753202 18.903843
H 4.659472 14.765773 17.448396
O 2.072540 15.427403 20.341187
H 2.268179 16.385936 20.455469
H 1.083999 15.397935 17.624947
O 8.103540 14.221548 17.326424
O 5.941243 15.599066 17.955405
H 5.847952 15.456871 18.937007
H 6.795355 15.096939 17.768227
H 9.505824 14.898029 17.873431
H 8.182801 14.263236 16.368853
O 12.504324 14.500852 17.311631
O 10.178594 15.574977 18.133771
H 11.619664 14.887388 17.588900
H 10.343255 15.514638 19.124078
H 12.570280 14.602295 16.326558
H 13.853648 15.122899 17.799468
H 1.139188 11.602684 20.918100
O 1.957921 11.088103 21.233285
H 2.785139 11.505276 20.874737
O 1.738366 10.670170 23.796258
H 1.902802 10.831251 22.849635
H 4.985101 11.489255 20.779626
H 2.948547 11.282628 24.635754
H 3.900841 13.155199 24.464277
H 5.250417 11.317182 24.597090
O 8.254642 11.856672 20.679762
O 6.117827 10.950702 21.708626
H 7.027509 11.302682 21.342334
H 6.159494 10.996366 22.691402
O 6.123993 10.969646 24.263962
H 9.106093 11.473001 21.024693
H 8.233253 12.808890 21.005895
H 7.488592 11.579765 24.664912
H 6.244675 10.022105 24.555756
O 8.362966 12.025704 24.959537
O 12.836103 12.078677 20.889156
H 9.787407 11.427980 24.471860
H 12.001282 11.636655 21.191577
O 10.560877 10.960992 21.620831
H 10.576841 10.945147 22.598427
O 10.664698 11.060096 24.154593
H 11.468869 11.628820 24.441954
H 12.918280 13.196361 24.604994
O 12.895101 12.228414 24.824107
H 10.629955 10.029939 21.373521
H 4.106873 13.331248 21.048937
H 2.730311 14.901946 20.890170
H 1.832747 16.292679 24.292426
O 4.020705 14.198102 21.525133
H 4.055725 14.032344 22.540966
O 3.935181 14.081457 24.075022
H 2.510551 14.869905 24.471059
H 4.640611 14.594753 24.562752
O 1.711144 15.373144 24.710679
H 5.329289 14.854528 20.981383
O 6.099601 15.409044 20.565747
H 8.091208 13.536706 24.256806
O 8.185922 14.320711 21.375444
H 7.425449 14.828744 20.922372
H 7.987540 14.371227 22.966481
O 7.986619 14.476646 23.931688
H 6.661855 15.114830 24.652469
H 9.011942 14.761505 20.991903
O 5.780220 15.551824 24.933743
H 9.435365 15.076826 24.392076
H 6.030896 16.372430 20.814605
O 10.193381 15.603861 24.738822
H 13.517264 15.245741 24.437789
O 10.426354 15.568604 20.779946
H 12.725322 13.615989 21.343455
O 12.721433 14.610773 21.616078
H 11.308404 15.237614 21.072915
H 12.654556 14.779805 23.157771
O 12.646573 14.790564 24.141188
H 11.079474 15.197154 24.416481
H 13.619704 14.968893 21.295766
H 10.378357 16.534563 21.035800
O 3.738104 11.730029 25.062818
H 3.598259 11.791362 26.082870
O 1.376625 10.848557 28.574283
O 3.698939 11.866553 27.719728
H 2.868145 11.463237 28.170022
H 3.727143 12.838767 27.954915
H 1.421538 9.887276 28.236456
H 5.285539 10.993618 27.823650
H 8.307192 12.116330 25.913316
O 6.171785 10.610064 28.071600
O 8.373251 12.192222 27.547449
H 7.534951 11.693077 27.724481
H 9.126663 11.537667 27.777617
H 6.173975 9.642702 27.756843
H 13.349430 11.399857 27.845171
H 12.869056 12.087798 25.826696
O 10.318387 10.356252 28.049545
O 12.571662 11.801126 27.340513
H 11.151110 10.782546 27.666698
H 12.439237 12.724403 27.727311
H 1.927670 15.597429 26.316829
O 4.017143 14.511318 28.131091
O 2.012053 15.872465 27.248446
H 2.796979 15.394193 27.619009
H 4.862014 15.012159 27.847842
H 3.943849 14.696254 29.104416
H 8.422271 13.763973 27.755241
H 5.821436 15.782541 25.887095
H 9.283495 15.216156 27.733239
O 8.407995 14.741099 27.998278
H 7.061689 15.705128 27.668941
O 6.145633 16.023373 27.432740
H 13.379364 14.475711 27.799405
O 12.472343 14.313987 28.185029
H 10.617111 16.928758 27.571107
O 10.620028 15.958180 27.310286
H 11.865787 14.985732 27.754546
H 10.439964 15.895034 26.336375
O 1.647331 10.763544 31.147296
O 3.937565 12.112530 31.340028
H 2.537343 11.198374 31.224090
H 4.113725 11.987641 32.934163
H 4.030120 13.073577 30.990986
H 4.677862 11.585144 30.974751
H 1.306329 10.816750 29.528756
H 1.619265 9.786827 31.333940
O 6.081651 10.885100 30.612358
O 8.133576 12.257473 31.321123
H 6.881933 11.524512 30.822285
H 8.266053 12.301325 32.292418
H 9.025502 11.860297 31.047005
H 6.092883 10.733316 29.618420
O 10.350931 10.971984 30.655241
O 12.456378 12.295712 31.559675
H 11.206680 11.454817 30.960119
H 12.678810 12.235489 33.255382
H 13.253232 11.791830 31.275250
H 12.487438 13.247872 31.266385
H 10.477778 10.825755 29.668886
O 3.964240 14.643749 30.682903
O 1.876307 16.094996 31.371696
H 3.158319 15.180841 30.958356
H 2.178813 15.861707 32.914190
H 4.791483 15.139328 30.934645
O 2.317301 15.731205 33.886393
H 8.308216 13.822266 30.954031
O 8.422374 14.782378 30.637244
O 6.114056 15.905851 31.316958
H 6.141355 15.958940 32.312231
H 6.999570 15.518731 31.014109
H 8.457629 14.779805 29.661356
H 12.500128 14.511610 29.736441
H 9.670077 15.563225 31.179819
O 12.593869 14.744081 30.698657
O 10.464577 16.119436 31.498261
H 11.837848 15.363614 30.946608
H 10.597565 16.028869 32.472333
H 1.386466 10.916088 34.407019
O 4.161286 11.937592 33.938781
O 2.170513 10.472839 34.835152
H 3.016775 10.956373 34.500315
O 2.094629 11.034136 37.419646
H 1.985435 10.921935 36.435428
H 3.479163 11.625253 37.882277
H 5.014983 11.493173 34.188868
O 4.369922 11.944257 38.237674
H 1.344700 11.600579 37.771092
H 5.608743 11.355187 37.622792
H 6.486448 9.968898 37.482609
O 8.529265 12.316059 33.902521
O 6.450681 10.940119 34.742978
H 7.257001 11.478322 34.468807
H 6.431800 10.989817 35.737824
O 6.439833 10.947135 37.238824
H 7.826409 11.660802 37.763081
H 9.345001 11.887251 34.242378
O 8.601977 12.227011 38.120829
H 8.520362 13.293594 34.170230
H 9.965066 11.686060 37.771893
O 12.809393 12.125627 34.234741
O 10.596951 10.916790 34.923747
H 11.976056 11.698514 34.596921
H 10.596746 10.948421 35.907272
O 10.802445 11.194925 37.488643
H 11.627851 11.740845 37.668878
O 13.015297 12.462347 38.258181
H 10.612455 9.937968 34.635905
H 2.446006 16.871108 37.714912
H 4.253774 13.403573 34.467739
H 4.483323 13.486774 37.757367
H 3.177287 15.241648 34.035227
O 4.401238 14.366433 34.770641
H 4.449787 14.403268 35.747223
O 4.499789 14.461444 37.439352
H 3.213520 15.402027 37.912343
O 2.374626 15.920468 38.058667
H 5.345704 14.922761 37.755071
H 5.581434 15.435647 34.337168
O 6.270464 16.036353 33.912080
H 8.752311 13.762161 37.574942
O 8.466584 14.773783 34.749707
H 7.621938 15.274040 34.455403
O 8.744687 14.712157 37.248650
H 8.656983 14.704381 36.242162
H 7.444638 15.520368 37.809756
H 9.296441 15.224926 34.431211
O 6.567960 15.991916 38.052099
H 6.272972 16.940042 34.319225
H 13.727722 15.036131 34.227478
H 13.457601 13.369545 38.188864
H 10.023245 15.479323 37.871917
O 10.684296 15.809261 33.969168
H 11.574994 16.014661 37.637050
H 12.898529 13.642768 34.617588
O 12.927440 14.653689 34.687279
H 11.485346 15.270707 34.264700
H 12.971547 15.720798 35.847300
O 12.902879 16.295953 36.645409
O 10.811297 15.996945 38.273989
H 13.763949 15.464413 37.727248
H 10.815800 16.714529 34.405578
O 1.734462 10.863701 41.829404
H 4.222413 12.012724 39.239356
O 3.940011 12.039269 40.766470
H 3.087000 11.620926 41.181892
H 4.002575 12.974882 41.098316
H 1.888889 9.953872 41.411045
H 6.314265 10.142901 41.072095
H 5.358322 11.419970 41.225255
H 8.423857 12.207717 39.095701
O 6.278805 11.056647 41.447412
O 8.378112 12.262209 40.725616
H 7.545031 11.777622 41.015755
H 9.166216 11.678109 40.985422
H 10.554071 10.044089 41.055968
H 12.920378 12.287058 39.264882