18432
Timestep: 200000
O 2.014811 2.364233 2.598147
O 4.160262 3.650622 3.689350
H 3.380911 3.180984 3.286941
H 5.000984 3.221898 3.294567
H 2.042317 1.405914 2.896632
H 1.198706 2.780635 2.985012
O 6.188478 2.215460 2.678653
O 8.332116 3.566020 3.542452
H 7.526530 3.053955 3.265865
H 8.324548 4.514009 3.224162
H 6.154161 2.285257 1.710122
H 5.980168 1.286084 2.951104
H 9.641212 2.927410 3.079256
O 10.530461 2.519982 2.796726
O 12.644512 3.754811 3.780460
H 11.777072 3.405785 3.365500
H 10.546595 2.432843 1.821697
H 12.520802 3.705493 4.762331
H 4.260785 5.258583 3.013506
O 4.196639 6.194807 2.687022
O 1.790357 7.339834 3.549087
H 2.621867 6.921549 3.200086
H 5.050579 6.660515 2.983087
H 1.032123 6.840769 3.163770
O 8.603657 6.080221 2.802905
O 6.467639 7.358120 3.528044
H 7.793762 6.597603 3.097597
H 6.351760 7.403715 4.496932
H 9.378551 6.651003 3.093725
H 6.459283 8.325600 3.150173
O 12.966977 6.237138 2.854665
O 10.762378 7.503200 3.724631
H 12.175897 6.709307 3.198848
H 12.952473 5.324208 3.261993
H 10.586956 7.636836 4.683180
H 10.780141 8.414126 3.347789
O 1.756329 2.093571 7.144145
O 4.031092 3.610973 6.411413
H 2.548119 2.567538 6.804722
H 4.067727 3.780703 5.449549
H 3.923957 4.508329 6.773223
H 1.804031 2.164070 8.122774
H 5.411408 2.866950 6.891920
O 6.256639 2.435507 7.156301
O 8.506434 3.593335 6.336529
H 6.265153 2.413909 8.123055
H 8.546322 3.675557 5.358896
H 7.679722 3.132265 6.600605
H 9.756303 2.684692 7.004686
O 10.494515 2.212681 7.389182
O 12.534518 3.797566 6.443903
H 11.860368 3.155510 6.784850
H 13.428550 3.428818 6.718087
H 10.466504 1.348875 6.931693
H 1.807889 8.263233 6.378243
O 3.944863 6.176115 7.264693
O 1.642515 7.324575 6.146335
H 3.100341 6.569677 6.906446
H 1.749450 7.267476 5.147192
H 3.905721 6.176188 8.261107
H 6.223215 8.351395 6.535176
H 8.305734 5.291347 6.967430
O 8.266740 6.234099 7.224736
O 6.133402 7.414978 6.204032
H 7.380958 6.563985 6.817211
H 5.310958 6.957644 6.487924
H 13.231266 6.703972 6.698283
H 9.565745 7.185248 6.585888
O 12.363668 6.346995 7.044925
O 10.320144 7.624483 6.226729
H 12.354734 5.352025 6.848918
H 11.069918 7.063493 6.583784
O 1.908486 2.323301 9.787496
O 4.123864 3.735466 10.531894
H 2.703981 2.891848 10.027469
H 4.148569 3.753328 11.514969
H 4.072251 4.702207 10.255960
H 2.006213 1.432082 10.139350
H 6.160730 1.401438 10.110367
O 6.336362 2.340031 9.853511
O 8.439639 3.654285 10.931135
H 5.519231 2.808028 10.080821
H 7.635525 3.138726 10.583389
H 8.301740 4.588244 10.549397
H 9.584402 2.840761 10.432168
O 10.389882 2.252329 10.236994
O 12.580450 3.758983 10.578099
H 10.424041 2.163338 9.250654
H 11.781486 3.225895 10.509945
H 13.334638 3.206331 10.258661
H 0.975269 7.075815 10.395643
O 3.891632 6.299578 9.859420
O 1.750926 7.527118 10.777888
H 3.018789 6.731341 10.206153
H 1.877758 8.412733 10.253878
H 4.694774 6.692995 10.247856
H 8.244300 6.175140 8.918273
O 8.194164 6.134759 9.887278
O 6.120264 7.478859 10.766576
H 6.974461 7.023898 10.479836
H 6.138184 7.528086 11.754266
H 9.045786 6.566504 10.188988
O 12.693228 6.343011 9.638189
O 10.431556 7.584459 10.553618
H 12.541613 6.308685 8.643633
H 12.726705 5.416294 9.940631
H 11.250543 7.132926 10.246055
H 10.464297 8.493810 10.199400
O 1.787214 3.687073 14.300144
O 4.166742 3.703222 13.246270
H 3.257007 3.517604 13.500874
H 1.886166 4.680663 14.439264
H 4.278785 4.658616 13.467613
H 0.909300 3.579220 13.824476
O 6.300889 2.234261 14.193045
O 8.520361 3.633135 13.618778
H 5.505819 2.694301 13.824420
H 7.111151 2.749384 13.953692
H 8.521990 3.614709 12.638404
H 8.542118 4.607069 13.825152
H 10.597309 1.570858 13.545616
H 9.894990 2.898727 13.983351
O 10.777093 2.387406 14.126299
O 12.814889 3.840339 13.149189
H 12.712200 3.810324 12.167802
H 12.049506 3.296951 13.500705
H 3.945809 6.327704 15.331225
O 3.905790 6.359445 14.322936
O 1.540325 7.492240 13.391243
H 3.039085 6.836766 14.077393
H 1.568478 7.519912 12.417623
H 5.414666 6.974053 13.884301
O 8.464234 6.255503 14.174192
O 6.154844 7.327603 13.357364
H 6.975091 6.951268 13.697849
H 9.190622 6.864765 13.871019
H 8.494925 6.234825 15.151471
H 10.537714 7.626905 12.193690
H 12.789874 6.318452 15.015783
O 12.891879 6.334946 14.045370
H 11.402211 7.237685 13.410659
H 12.856879 5.355701 13.850590
O 10.569456 7.692482 13.171419
O 1.888815 2.357385 16.667280
O 4.120979 3.515709 17.678438
H 1.915050 2.724341 15.755003
H 3.378667 3.017019 17.316792
H 1.086869 2.724413 17.085824
H 4.993128 3.080760 17.395638
O 6.349973 2.396652 16.856883
O 8.537966 3.662720 17.434301
H 7.711727 3.207639 17.127864
H 8.495871 4.624781 17.105747
H 6.289432 2.347006 15.822200
H 6.429959 1.426521 17.135800
H 9.979916 2.779339 17.083629
O 10.818820 2.281442 16.917720
O 12.735113 3.966430 17.821611
H 12.042044 3.338743 17.552430
H 10.968701 2.228163 15.954398
H 12.785091 3.800836 18.828774
H 13.876197 1.697333 16.327638
O 3.903183 6.084829 17.005458
O 1.768043 7.474438 17.744566
H 4.042401 5.114685 17.138332
H 2.478476 6.883457 17.425916
H 0.926385 7.145515 17.350221
H 4.737378 6.574824 17.181892
O 8.368325 6.315279 16.884684
O 6.122944 7.496903 17.658684
H 7.546606 6.751511 17.205979
H 6.164408 7.611162 18.646769
H 9.142168 6.853054 17.249651
H 6.162359 8.400562 17.268730
O 12.732328 6.409998 16.766499
O 10.432923 7.802381 17.630601
H 11.927110 6.916191 16.948448
H 12.612770 5.496124 17.212676
H 10.473546 7.729236 18.622344
O 1.979879 2.418468 21.391872
O 4.027581 3.739389 20.327024
H 3.898947 3.679517 19.340741
H 2.749213 2.928269 21.055213
H 4.057216 4.705010 20.575494
H 1.910525 1.596341 20.858351
O 6.239769 2.455465 21.224500
O 8.585106 3.675526 20.063527
H 5.408386 2.941245 20.970064
H 8.594460 3.716780 19.070772
H 7.772268 3.213137 20.361973
H 6.291744 2.449210 22.221757
H 13.628620 3.009813 20.799877
O 10.682077 2.223440 21.083409
O 12.840430 3.542545 20.489332
H 10.625845 2.371542 22.083706
H 9.935876 2.709251 20.702178
H 11.983237 3.051012 20.708030
H 1.911260 8.554785 20.669817
H 1.924798 7.596509 19.389478
O 3.952325 6.183411 21.203789
O 1.858970 7.615522 20.371259
H 3.962106 6.133294 22.214891
H 3.192813 6.753672 20.928587
H 6.128935 8.392993 20.534917
H 8.364541 5.339540 20.656479
H 5.436307 6.960411 20.695649
O 8.447102 6.223847 21.090950
O 6.243974 7.439319 20.387861
H 7.607725 6.722101 20.834657
H 13.565661 6.695235 20.898140
H 9.743427 7.009475 20.533229
H 12.870122 5.232571 20.894707
O 12.750143 6.167705 21.172273
O 10.575552 7.563145 20.262472
H 11.327060 7.025455 20.577464
O 1.951106 2.366044 24.095949
O 4.134064 3.583883 24.967424
H 1.986201 2.403107 23.115012
H 2.823077 2.794222 24.431595
H 4.045581 4.479186 24.578989
O 6.231781 2.298221 23.891263
O 8.560406 3.348056 24.506277
H 5.521112 2.727029 24.385390
H 7.685083 2.937067 24.223983
H 8.587523 4.281494 24.203610
H 6.262315 1.337580 24.130617
H 13.667194 3.304574 24.417806
O 10.771785 2.251754 23.691587
O 12.788560 3.676998 24.808043
H 9.953061 2.613642 24.105854
H 12.066166 3.117460 24.425629
H 10.804420 1.298655 23.983954
O 3.947133 6.008910 23.803581
O 1.971838 7.438350 24.824926
H 3.189792 6.559946 24.137933
H 1.142265 7.013490 24.444933
H 4.756219 6.390816 24.246157
H 1.987210 8.386696 24.386178
O 8.339631 5.946622 23.721246
O 6.075489 7.216613 24.688338
H 8.419616 6.012368 22.749820
H 6.916652 6.768223 24.365805
H 6.138657 7.284551 25.673552
H 9.063444 6.489259 24.099776
H 10.263282 8.251789 24.193536
H 12.576981 5.275635 24.165791
O 12.624489 6.185658 23.779438
O 10.320617 7.313434 24.650350
H 12.745309 6.113603 22.796025
H 11.165775 6.874574 24.302773
H 4.006755 3.632008 25.946560
H 1.597209 2.616706 29.110039
O 1.616548 2.602736 28.131297
O 3.925092 3.488182 27.514539
H 2.995104 3.176261 27.766330
H 0.766099 2.977715 27.787716
H 4.020933 4.397104 27.884346
H 5.163741 2.652019 27.943889
O 5.970561 2.063708 28.158423
O 8.286395 3.201172 27.221609
H 6.762147 2.447363 27.702397
H 8.409684 3.278138 26.269824
H 8.252761 4.130111 27.558043
H 10.219400 1.470949 28.930848
H 9.566586 2.487902 27.881870
O 10.420047 2.092742 28.221849
O 12.528317 3.798238 27.460287
H 12.593430 3.715908 26.468713
H 11.775968 3.224181 27.750178
O 4.096095 6.101486 28.347745
O 1.944800 7.583248 27.466421
H 3.360006 6.714048 27.998367
H 1.973089 7.547099 26.489649
H 1.127925 7.063111 27.754568
H 4.037461 6.186142 29.325586
H 8.251762 6.075807 29.084657
H 9.144585 6.565438 27.873484
O 8.394076 5.943128 28.114188
O 6.263366 7.311678 27.373955
H 5.465663 6.875585 27.774434
H 7.085768 6.735235 27.594455
H 11.319072 7.051449 27.657431
O 12.634684 6.309303 28.280604
H 10.514275 7.442589 26.285976
H 12.582657 5.341720 28.126401
O 10.435288 7.417945 27.273948
H 12.589909 6.394516 29.262610
O 1.909679 2.556270 30.842014
O 4.066061 3.645935 31.979462
H 3.218228 3.222976 31.647924
H 4.805792 3.113228 31.607235
H 1.070410 2.930770 31.240242
H 1.889257 1.610483 31.093130
O 6.248178 2.445783 30.881184
O 8.104298 3.965673 31.856775
H 7.420951 3.396079 31.469127
H 6.188162 1.488638 31.308958
H 6.143965 2.366849 29.906213
H 8.102038 4.863520 31.421347
H 9.493853 3.473729 31.454720
O 10.369386 3.107046 31.059531
O 12.748094 3.883700 31.900672
H 11.889010 3.454752 31.679328
H 10.298335 3.253790 30.099305
H 12.845580 3.774842 32.907722
H 4.127006 5.370699 31.413805
O 3.945509 6.282951 31.101459
O 1.806974 7.577496 31.836852
H 2.607536 7.046018 31.605040
H 4.705069 6.815059 31.361860
H 1.045899 7.138327 31.397878
O 8.232685 6.390507 30.761536
O 6.103499 7.739227 31.658843
H 7.466830 6.939866 31.111533
H 9.077896 6.857208 31.072588
H 6.203613 7.793299 32.618506
H 5.978486 8.659296 31.293088
H 10.687385 8.554967 31.420277
O 12.812419 6.375363 30.975845
O 10.581017 7.619518 31.649219
H 11.981555 6.813945 31.342557
H 12.760601 5.472231 31.364787
H 10.607714 7.529903 32.632519
H 4.288733 3.853836 33.640864
O 1.935682 2.705739 35.158361
O 4.257517 3.880097 34.627935
H 2.699488 3.279300 34.916194
H 4.258794 4.824095 34.892445
H 1.968633 2.662821 36.149991
H 5.389299 2.816971 35.220775
O 6.194416 2.291391 35.407845
O 8.250764 3.499614 34.556067
H 8.244194 3.622151 33.550931
H 7.490479 2.900907 34.822828
H 6.297735 2.303252 36.439939
H 9.827302 3.011496 35.014795
O 10.722805 2.693599 35.325622
O 13.024155 3.769434 34.554548
H 10.635935 1.709412 35.287465
H 12.156925 3.329872 34.851080
H 13.794057 3.164605 34.756982
H 1.787398 8.417880 34.829357
O 4.154145 6.473341 35.416512
O 1.871057 7.491514 34.501477
H 4.150650 6.473474 36.402682
H 3.275621 6.808453 35.088632
H 1.872214 7.527057 33.517726
H 8.273256 5.217149 34.887155
H 5.357183 7.260694 34.678924
O 8.412312 6.198543 34.978607
O 6.113327 7.757574 34.239275
H 7.577664 6.595889 34.628048
H 6.144228 8.656450 34.681456
H 10.022746 6.889391 34.634632
O 13.058367 6.372421 35.203497
O 10.807258 7.387003 34.281765
H 13.174667 5.427417 34.913549
H 11.611635 6.984135 34.679205
H 13.783651 6.918958 34.739423
O 2.034487 2.656978 37.750050
O 4.338070 3.729725 38.539132
H 2.927620 3.018127 38.071401
H 4.344339 4.728456 38.324092
H 4.166395 3.668932 39.520069
H 2.060842 1.713159 38.039209
H 5.583529 2.855088 38.174053
O 6.468480 2.406389 37.972519
O 8.469647 4.110705 38.765992
H 7.767065 3.510568 38.425900
H 6.471581 1.442098 38.227518
H 10.804000 3.140015 36.915325
H 10.082552 3.647261 38.231176
O 10.938693 3.443151 37.834580
O 13.328332 3.769114 38.651633
H 12.446334 3.455854 38.272034
O 4.263660 6.334231 38.084908
O 1.963073 7.260936 38.874216
H 3.456419 6.745189 38.427926
H 1.982260 8.193660 38.531366
H 1.200392 6.825922 38.459723
H 8.338422 4.964234 38.267757
H 5.154770 6.784142 38.354032
O 8.552523 6.563277 37.626349
O 6.468743 7.453125 38.826548
H 8.521307 6.471821 36.672764
H 7.322572 7.125848 38.467996
H 6.387549 7.386398 39.800562
H 9.469363 6.891765 37.850282
H 10.920510 8.375010 38.417458
O 13.208826 6.348661 37.837563
O 10.872949 7.404805 38.589164
H 13.089058 6.392814 36.840924
H 13.242618 5.399303 38.089072
H 11.706440 6.994283 38.241981
H 0.926375 2.936910 41.893284
O 1.814027 2.522428 42.051089
O 4.024575 3.629048 41.103131
H 3.138100 3.293875 41.387676
H 4.074091 4.596800 41.395893
H 1.949062 2.489488 43.041593
H 5.405185 2.819054 41.777012
H 8.335952 3.939195 40.377362
O 6.171135 2.344003 42.152897
O 8.322656 3.653855 41.331735
H 6.972621 2.837080 41.817139
H 8.431126 4.514239 41.826200
H 9.924525 3.080615 41.729175
O 10.779668 2.597281 41.926657
O 13.160267 3.680994 41.277370
H 10.899909 2.657638 42.901966
H 13.198526 3.803839 40.283095
H 12.282054 3.259343 41.448345
H 0.965736 6.942530 41.721803
O 4.019683 6.103442 42.063583
O 1.778853 7.527965 41.475358
H 3.193938 6.569253 41.853720
H 1.825830 7.457484 40.481534
H 4.118430 6.017896 43.020770
H 8.538912 6.238585 43.390746
O 8.516156 6.110339 42.417407
O 6.307773 7.279404 41.415028
H 5.438346 6.904401 41.688936
H 7.032374 6.681696 41.766657
H 9.269451 6.620612 42.031954
H 11.474103 6.815035 41.680832
O 10.645132 7.276498 41.309449
H 12.906173 6.060306 43.244084
H 10.698421 7.259544 40.323222
O 12.785249 6.065907 42.268437
H 12.919417 5.110343 41.951363
O 1.941494 2.444360 44.862883
O 4.187075 3.543308 45.673971
H 3.377910 3.095959 45.384248
H 4.955358 3.020379 45.257340
H 1.188751 2.906302 45.326788
H 1.859070 1.451650 45.124072
O 6.216594 2.276023 44.807505
O 8.455195 3.688393 45.591410
H 7.686922 3.163854 45.254582
H 8.263429 4.673221 45.450094
H 6.272983 2.279093 43.812217
H 6.255588 1.318233 45.057607
H 9.955952 3.526438 44.911958
O 10.862281 3.666189 44.549186
O 12.934920 3.514122 46.182336
H 12.058230 3.470580 45.723946
H 10.977635 4.641250 44.358851
H 1.117374 6.848937 45.071283
H 4.204764 5.076338 44.968574
O 4.158349 6.031683 44.694891
O 1.946350 7.322214 45.338043
H 2.726994 6.788871 44.974540
H 4.931152 6.445142 45.183559
O 8.497553 6.249860 44.971895
O 6.217540 7.327482 45.758276
H 7.683769 6.788816 45.305514
H 9.317853 6.743930 45.250136
H 6.110909 7.295511 46.711130
H 6.213598 8.267108 45.384079
H 13.012278 5.107473 45.517066
O 12.837276 5.906973 44.971895
O 10.816560 7.359997 45.782982
H 12.139057 6.459820 45.405916
H 10.845990 7.364842 46.764820
H 10.783504 8.315549 45.461181
O 1.897471 2.511051 49.208608
O 4.283819 3.361692 48.278603
H 2.782852 2.816075 48.903634
H 4.268968 3.446287 47.298510
H 4.169506 4.295185 48.588079
H 2.033178 2.369731 50.186111
O 6.355491 2.098942 49.346434
O 8.568657 3.377544 48.266109
H 5.525863 2.532225 49.073539
H 8.539595 3.424017 47.263111
H 7.687395 2.979132 48.548121
H 6.353915 2.162078 50.333449
H 8.646015 4.874601 48.728776
H 12.859244 3.450308 47.175823
H 9.738119 2.686121 49.408228
O 10.472022 2.159311 49.798408
O 12.710308 3.425712 48.880447
H 11.936360 2.968578 49.279462
H 13.489459 2.881046 49.108375
H 10.471760 1.273989 49.403894
O 4.123322 5.827773 49.208045
O 2.044887 7.215160 48.159855
H 3.343930 6.250556 48.811899
H 1.973935 7.299144 47.158827
H 4.068336 5.898387 50.203108
H 2.053117 8.146007 48.515592
H 5.480226 6.711808 48.793102
O 8.608807 5.793925 49.139722
O 6.317706 7.146138 48.440123
H 7.736532 6.239566 48.892603
H 6.240453 8.084063 48.710373
H 13.699093 6.367752 48.971112
H 12.872066 4.991276 49.048495
H 9.923369 6.700866 48.759673
O 12.849626 5.967475 49.310866
O 10.727272 7.258696 48.555212
H 11.523346 6.741302 48.909599
H 2.077134 1.386070 52.036778
O 2.114352 2.366304 51.828773
O 4.248987 3.626983 52.740937
H 2.892431 2.766514 52.268534
H 4.154224 3.615521 53.720917
H 4.182077 4.559598 52.433262
H 5.479380 2.858896 52.217939
O 6.367999 2.401623 52.031094
O 8.503911 3.580195 53.019629
H 7.669107 3.113137 52.706213
H 8.542748 4.466489 52.520887
H 6.314237 1.441128 52.311700
H 13.648748 3.100918 52.714824
H 9.840808 2.749542 52.783258
O 10.622114 2.129139 52.536533
O 12.836961 3.597840 52.941908
H 10.548540 1.995388 51.555821
H 12.068583 2.993985 52.779206
O 4.088706 6.155788 51.871544
O 1.886193 7.341106 52.929189
H 3.280545 6.538663 52.332635
H 4.875072 6.648968 52.201562
H 1.139282 6.839031 52.558256
H 1.869970 8.241314 52.518524
H 8.613117 5.869492 50.852732
O 8.586945 5.939907 51.836145
O 6.386287 7.357697 52.490778
H 7.232444 6.835725 52.244616
H 6.300889 7.375438 53.489724
H 9.356532 6.436132 52.184003
H 12.923201 5.085227 52.233810
H 10.667625 8.123542 52.727261
H 12.851150 6.070430 51.010762
O 12.985055 6.046742 51.980612
O 10.708143 7.179556 52.990476
H 11.529074 6.759158 52.583863
H 1.249239 2.884794 55.884606
O 2.012330 2.381575 56.265050
O 4.136371 3.655466 55.407025
H 3.313512 3.197200 55.759724
H 1.865392 2.365880 57.219873
H 4.100667 4.567209 55.684423
O 6.334785 2.365329 56.348004
O 8.539910 3.680849 55.647729
H 5.529436 2.840616 55.979098
H 7.111782 2.864279 55.991592
H 8.588995 3.706631 54.631562
H 8.531292 4.634892 55.932781
H 9.726820 2.898055 56.154350
H 10.516377 1.509804 55.905879
H 12.640570 3.722623 54.623514
O 10.538765 2.343888 56.403045
O 12.629902 3.870003 55.626400
H 11.898259 3.310187 55.953998
H 1.143446 6.925304 55.818873
H 4.324664 6.184156 57.260619
H 1.967119 7.504835 54.577591
O 4.230504 6.149769 56.242426
O 1.938725 7.460572 55.558415
H 3.396808 6.650730 56.033463
O 8.517891 6.406941 56.438782
O 6.350078 7.383007 55.186469
H 5.537419 6.885389 55.584810
H 7.141369 6.986872 55.625387
H 9.326629 6.863003 56.161103
H 8.571022 6.412148 57.423095
H 12.869071 6.392354 57.435871
O 12.868966 6.371870 56.466077
H 10.706987 7.500051 54.663641
H 12.664955 5.426055 56.112253
O 10.748031 7.633384 55.665288
H 11.590771 7.160919 56.025471
O 1.865135 10.008427 2.837545
O 4.253717 11.019746 3.620021
H 2.721344 10.350297 3.164844
H 4.177757 11.966154 3.258903
H 1.824806 9.027020 3.102702
H 4.962783 10.608848 3.082785
O 6.441941 9.768707 2.513717
O 8.451043 11.210662 3.561570
H 7.177894 10.265344 2.927056
H 8.461659 11.334186 4.513106
H 9.318851 10.811027 3.326899
H 6.493968 9.867707 1.522252
O 10.683233 10.040882 2.721509
O 12.873538 11.437062 3.338076
H 11.546889 10.519899 2.879394
H 13.676338 10.950657 2.970413
H 10.654697 10.074427 1.765836
H 12.829971 12.372389 3.023591
O 4.378888 13.550828 2.771254
O 2.111777 14.892451 3.304083
H 3.545486 14.061150 2.993110
H 1.994252 15.839101 3.172633
H 1.250534 14.468717 3.019060
H 5.101008 14.147071 3.039850
H 8.335794 12.716862 2.858424
O 8.302371 13.677137 2.583632
O 6.339620 15.202350 3.546296
H 6.255430 15.009556 4.530097
H 7.122030 14.649097 3.232610
H 8.388978 13.681315 1.602627
H 9.695341 14.640560 3.030963
O 12.822561 14.090941 2.540512
O 10.502923 15.122725 3.313769
H 11.976248 14.466900 2.890964
H 12.894980 14.463025 1.607579
H 10.396241 16.048789 2.949010
H 4.301041 10.984263 5.341472
O 1.902326 9.953265 6.842170
O 4.209262 11.055350 6.306257
H 2.648406 10.534431 6.599705
H 1.054074 10.418295 6.615694
H 4.978376 10.603278 6.692908
O 6.468480 9.826714 7.098784
O 8.488461 11.438939 6.272490
H 6.393119 9.874125 8.116189
H 7.197969 10.467038 6.887081
H 8.490721 12.356101 6.628852
H 9.335616 10.960103 6.528186
H 10.563780 9.145639 6.734188
H 12.870648 11.266066 5.088004
O 10.709299 10.110879 7.014647
O 12.939387 11.118928 6.057015
H 10.830434 10.135584 7.994290
H 12.104582 10.606245 6.284162
H 4.078684 12.609506 6.864676
O 3.896067 13.584918 7.078130
O 1.937805 14.973407 5.992621
H 3.959567 13.590912 8.053551
H 2.016503 14.862781 5.006423
H 2.602180 14.403988 6.398548
O 8.419511 14.052733 7.151461
O 6.023041 14.921576 6.107694
H 7.569781 14.299417 6.747099
H 5.231398 14.471381 6.519795
H 9.233242 14.414887 6.663176
H 6.016682 15.873192 6.400991
H 12.675045 12.687374 6.645381
H 10.606085 15.092450 5.065183
O 12.640255 13.627364 6.912276
O 10.617699 15.101835 6.098932
H 11.377879 14.512071 6.443790
H 13.480525 14.088397 6.658426
O 1.932077 9.836826 9.563901
O 3.997763 11.100278 10.457269
H 1.883281 9.865951 8.586060
H 3.947759 11.085504 11.439106
H 3.241504 10.545028 10.137381
H 1.171325 10.405216 9.867131
H 6.220325 9.030290 10.016213
O 6.237772 9.999465 9.726659
O 8.428603 11.292406 10.350958
H 5.359138 10.440941 9.987173
H 8.474272 11.211147 11.321596
H 7.565104 10.883083 10.063374
O 10.736942 10.112393 9.660982
O 12.906489 11.354410 10.751887
H 9.942025 10.653656 9.851767
H 11.547415 10.522745 10.090050
H 12.884784 11.387955 11.757418
H 12.799491 12.248502 10.418830
O 4.044230 13.672414 9.698407
O 1.877059 14.970985 10.303740
H 4.002666 12.713532 9.990775
H 2.749397 14.592906 9.999554
H 1.878809 15.891236 9.967082
H 4.888226 14.063148 10.112168
H 8.419196 13.998782 8.801213
O 8.401170 13.854490 9.797289
O 6.104340 14.878888 10.766070
H 8.353978 12.848500 9.887222
H 6.091202 14.789212 11.782743
H 6.951232 14.482159 10.446069
H 13.439481 14.076227 9.869888
H 9.735912 14.609376 10.341897
H 12.533572 13.597149 8.705708
O 12.532206 13.726425 9.675052
O 10.512856 15.167049 10.615974
H 11.342038 14.780129 10.214089
O 1.758378 10.072429 14.197266
O 3.937563 11.253351 13.044398
H 1.683622 9.150120 13.869837
H 3.191873 10.801521 13.512749
H 3.867195 12.181533 13.399404
H 1.869518 10.016904 15.210169
O 6.292901 10.106095 13.776640
O 8.535496 11.257226 12.988063
H 5.403141 10.476545 13.553326
H 7.727913 10.813631 13.351004
H 9.356689 10.797101 13.362091
H 6.209289 9.128867 13.673762
H 10.693691 9.329350 13.692672
O 10.754652 10.238278 14.077055
O 13.054268 11.405999 13.416963
H 11.651680 10.565131 13.805398
H 13.057946 12.311354 13.766284
H 13.859012 10.916809 13.691096
H 4.009456 13.713770 15.002163
H 1.777271 15.098202 12.030088
O 3.895300 13.826152 14.028374
O 1.751662 15.063386 13.016034
H 2.565220 14.697599 13.443076
H 4.753044 14.302989 13.800671
H 6.207449 15.902680 13.442401
O 8.390239 13.705535 14.079925
O 6.157682 14.901776 13.341887
H 8.494767 12.800665 13.709274
H 7.078726 14.577708 13.611011
H 9.222942 14.231358 13.745686
O 10.541497 15.047582 13.149527
H 10.513276 15.149368 12.144559
O 12.838800 14.107955 14.207903
H 12.037419 14.485126 13.748163
H 10.600882 15.994293 13.478138
H 13.645384 14.280464 13.635155
O 1.904618 10.142426 16.882996
O 4.223315 11.227011 17.306155
H 2.845023 10.490472 17.056672
H 1.930873 9.213880 17.201927
H 4.239906 12.182684 17.005627
H 5.059476 10.787352 17.012943
O 6.456919 9.972581 16.646175
O 8.357236 11.451049 17.694478
H 7.174320 10.520505 17.065676
H 8.442687 11.388379 18.700965
H 9.204759 11.066249 17.339022
H 6.451453 10.111969 15.674975
O 10.579230 10.356170 16.769707
O 12.786825 11.458557 17.658234
H 11.402526 10.771366 17.063369
H 12.906962 12.404360 17.281280
H 10.651018 10.273518 15.788545
H 13.664724 11.043784 17.439479
H 10.426722 8.762595 17.431094
O 4.016566 13.719704 16.634582
O 1.860195 13.718008 17.967823
H 3.178004 13.846921 17.186056
H 4.750832 14.323577 16.919690
H 1.783184 14.376982 18.694268
H 1.087376 13.817736 17.375603
H 8.409001 12.913592 17.025831
O 8.394969 13.865813 16.721532
O 6.221534 15.218820 17.574435
H 6.159626 15.250003 18.548225
H 6.978770 14.628995 17.353091
H 8.401486 13.823064 15.752695
H 9.705536 14.534051 17.265522
O 12.814889 13.887369 16.809158
O 10.539605 15.030204 17.541287
H 11.979296 14.354094 17.100344
H 10.444432 15.106377 18.538601
H 12.807269 13.935991 15.773631
H 4.135751 11.372938 19.033122
O 2.009330 10.262074 21.293272
O 4.053206 11.324619 20.000833
H 2.752755 10.693317 20.757668
H 4.861629 10.839970 20.386567
H 1.161492 10.647722 20.936691
O 6.069025 10.088475 20.950985
O 8.290178 11.413265 20.256957
H 6.935046 10.582933 20.754123
H 8.327333 12.407266 20.509930
H 6.145384 9.907186 21.934173
H 9.157566 10.921593 20.485448
O 10.504763 10.052811 20.996909
O 12.680563 11.426162 20.150647
H 10.436549 10.019084 21.990565
H 12.682613 11.461221 19.159692
H 11.860789 10.970215 20.432321
H 10.557421 9.084907 20.753898
H 4.033467 12.919344 20.702121
O 4.140139 13.806655 21.111774
O 1.960066 15.119880 20.174509
H 4.154108 13.657034 22.075939
H 2.764349 14.666960 20.544485
H 1.951926 16.085967 20.458660
O 8.349248 13.880224 20.929487
O 6.118635 15.173043 20.265061
H 7.537041 14.419428 20.677640
H 5.344634 14.665446 20.611625
H 9.093609 14.392302 20.524393
H 6.038912 16.119875 20.610556
H 13.565031 14.344103 20.637232
H 12.767013 12.947379 20.608136
O 12.720819 13.907472 20.911309
O 10.531355 15.179280 20.151041
H 11.402001 14.738955 20.396978
H 10.552376 16.079427 20.525012
O 1.976899 9.869766 23.916645
O 4.125356 11.020291 24.695654
H 1.974098 10.024110 22.972908
H 3.283015 10.559136 24.437279
H 4.129124 11.149324 25.676310
H 1.115658 10.302401 24.234394
H 4.122923 12.433485 23.968421
H 6.279605 8.901377 23.969772
O 6.264995 9.854023 23.592874
O 8.252445 11.206908 24.572235
H 5.411917 10.228711 23.929420
H 7.499098 10.703913 24.202597
H 8.265005 11.171668 25.552891
O 10.375009 9.807459 23.585670
O 12.547026 11.037366 24.527212
H 9.583561 10.318386 23.880008
H 11.154213 10.255292 23.963413
H 12.550600 11.029313 25.509894
H 12.657808 11.982927 24.233156
H 2.034492 15.662051 24.262759
O 4.094865 13.429545 23.733796
O 2.144170 14.769775 24.652376
H 2.940953 14.281978 24.253023
H 4.927641 13.857517 24.021717
H 0.810671 14.028149 24.089589
H 8.349458 13.662968 22.603664
H 8.443791 12.783529 23.963750
O 8.379729 13.676289 23.590848
O 6.121946 14.791331 24.484046
H 6.177862 14.816702 25.493629
H 6.981555 14.335323 24.212671
H 12.774948 13.723034 22.629158
H 9.710687 14.416219 24.193311
O 12.806007 13.534661 23.598221
O 10.539290 14.819669 24.604258
H 11.368262 14.361300 24.250884
H 13.577223 14.048858 23.883722
O 1.761006 10.099616 28.135743
O 4.002666 11.132855 27.277325
H 3.123280 10.777300 27.580723
H 4.089962 12.016048 27.685626
H 1.829514 9.109309 27.877705
H 1.721134 10.074851 29.141105
H 6.228891 8.890963 27.871515
H 5.366685 10.312755 27.846020
O 6.141495 9.792261 28.265972
O 8.214292 11.168337 27.208608
H 7.480652 10.682115 27.664240
H 9.053406 10.667098 27.465520
H 13.487935 10.656320 27.626027
H 10.422149 9.062382 27.933815
O 10.424199 10.003825 28.226745
O 12.696224 11.192194 27.362981
H 11.278291 10.386748 27.827561
H 12.819986 12.114443 27.712471
H 4.287377 13.681557 29.155512
H 2.040425 14.888091 26.338597
O 4.235965 13.621369 28.171874
O 1.983426 14.958754 27.322516
H 2.775211 14.475498 27.648257
H 5.006376 14.106260 27.751191
H 6.059460 15.905405 27.484543
H 8.228113 12.813683 27.939837
O 8.263849 13.737143 28.214420
O 6.238718 14.991754 27.101566
H 7.101008 14.678525 27.544648
H 9.112318 14.098691 27.815630
O 10.526625 14.818276 27.254363
H 10.435761 15.758630 27.535475
H 11.886014 14.134174 27.952556
O 12.750038 13.701599 28.258205
H 10.602406 14.855818 26.279504
H 13.528401 14.029239 27.791937
O 1.857846 9.948663 30.768402
O 3.957444 11.217504 31.724463
H 2.660209 10.429739 31.054354
H 4.758578 10.747388 31.335015
H 1.843546 9.023751 31.090428
H 4.000538 12.164034 31.391800
O 6.142441 10.157079 30.740769
O 8.346042 11.291861 31.686869
H 7.013140 10.553565 31.061839
H 8.449099 11.311176 32.670339
H 9.199924 10.855108 31.342388
H 6.174866 9.935282 29.776322
O 10.536084 10.197164 30.909267
O 12.715879 11.441845 31.589957
H 11.338044 10.692953 31.245194
H 12.667162 12.397396 31.314586
H 13.534287 11.083869 31.157625
H 10.621904 10.202129 29.882576
O 4.066602 13.673685 30.816970
O 1.847345 15.170258 31.697112
H 3.289416 14.226998 31.109675
H 4.868382 14.103838 31.132862
H 1.850940 16.134044 31.445603
H 1.058724 14.746039 31.280087
H 8.424556 12.889311 31.259433
O 8.472327 13.812407 30.886925
O 6.231098 14.912675 31.694748
H 6.268253 14.841952 32.674391
H 7.085348 14.567112 31.361748
H 8.451621 13.777409 29.897490
H 9.846221 14.558695 31.376549
O 12.815099 13.914011 30.858898
O 10.604929 15.100806 31.669198
H 11.990752 14.429117 31.203717
H 10.587744 15.097536 32.662235
H 12.820775 13.913587 29.862597
O 1.751489 10.024049 35.277053
O 3.976311 11.163735 34.318853
H 2.559712 10.430526 34.951931
H 4.029652 11.076724 33.329531
H 4.866517 10.806910 34.606549
H 0.986223 10.512815 34.884116
O 6.282337 10.200191 35.165002
O 8.557778 11.269275 34.410587
H 7.108366 10.607213 34.872016
H 8.561457 12.232577 34.658551
H 9.421119 10.779541 34.593887
H 6.291587 10.096165 36.156013
H 12.890880 11.281991 33.087082
O 10.885562 9.937946 35.202484
O 12.982112 11.291861 34.072465
H 12.281160 10.730676 34.485156
H 10.971854 9.944606 36.188598
H 10.909631 8.980275 34.955196
H 3.852664 12.758824 34.928519
H 1.625088 15.065444 33.377818
O 3.843294 13.709652 35.201021
O 1.632456 14.950822 34.359317
H 4.015310 13.685735 36.162091
H 2.496843 14.548038 34.598670
H 6.046585 15.910006 34.658382
H 5.375298 14.470836 34.784728
O 8.470908 13.797814 35.013388
O 6.136766 14.948521 34.346261
H 7.654287 14.233235 34.703067
H 9.322898 14.293059 34.681850
H 10.624847 15.853210 34.601991
H 12.921939 12.823189 34.819114
O 12.889461 13.780557 35.097637
O 10.667047 14.939196 34.271185
H 11.466799 14.405744 34.609701
H 13.676443 14.275802 34.809096
O 1.908428 9.722446 37.909993
O 4.156709 11.185958 38.635650
H 1.954774 9.903735 36.958322
H 3.314127 10.729163 38.359716
H 4.111687 11.191649 39.669433
H 1.138771 10.252810 38.268826
H 6.416926 9.006070 38.201517
H 5.538045 10.313845 38.196170
O 6.422864 9.979060 37.849494
O 8.659258 11.070608 38.555172
H 8.631615 11.204062 39.546126
H 7.813943 10.567250 38.380427
H 10.181562 10.296406 38.146308
O 11.088627 9.979786 37.847130
O 12.749933 11.691193 38.810452
H 11.668760 10.603762 38.332140
H 12.994462 11.577237 39.749911
H 1.761342 15.895898 38.467433
O 4.074658 13.724306 37.837394
O 1.805251 14.902442 38.598056
H 4.168865 12.785345 38.168538
H 2.675907 14.576013 38.298935
H 5.031108 14.052491 38.014278
H 8.643650 12.565062 37.940722
O 8.708553 13.527637 37.665519
O 6.469531 14.790423 38.669643
H 8.570706 13.603749 36.672595
H 6.508631 14.729267 39.676468
H 7.305702 14.380494 38.315931
H 12.701164 14.627057 36.561107
H 12.157083 12.464911 38.796382
H 13.018322 16.124901 36.833721
O 12.812103 15.290754 37.276971
O 11.107283 14.078104 38.943495
H 10.235008 13.971232 38.470754
H 11.635967 14.719518 38.389994
H 1.933984 9.985054 43.224386
H 1.853957 9.120511 42.004096
O 1.957271 10.064800 42.252904
O 4.369539 10.959740 41.272474
H 3.544351 10.584325 41.669745
H 4.463619 11.862249 41.667888
H 6.671808 8.882486 41.784047
H 5.881384 10.246452 41.728950
O 6.700659 9.820962 42.131005
O 8.738666 11.214840 41.181865