18432
Timestep: 6000000
H 0.094621 2.459224 4.662050
H -2.497126 2.050760 3.692718
H -2.313153 -0.023175 0.084381
H 3.095912 0.371756 2.881854
O 3.302470 1.321172 2.631097
H 2.706555 1.503989 1.869057
H 2.386717 2.175582 3.957437
O 1.863065 2.475821 4.744052
O 1.583443 1.212193 0.282813
H 0.884751 1.932265 0.069091
H 4.905120 2.055141 2.397040
H 6.376733 2.227200 3.200241
O 5.733829 2.646831 2.515543
O 7.483715 1.627356 4.500354
H 8.120279 0.926649 4.204759
O 9.152258 -0.495844 3.706024
H 9.374554 0.365849 0.669718
H 9.373055 -0.416150 2.755126
O 9.857136 -0.421415 1.072044
H -0.316378 5.761886 1.300316
O -0.699930 5.596231 0.385067
H -0.160558 6.446605 3.728774
H -0.402950 4.669770 0.082936
O -0.070965 6.782624 2.821933
H -2.375749 5.345644 -0.035602
H 7.448376 4.234150 -0.128287
H 6.646532 3.298852 0.866914
H 5.262430 4.098920 3.291244
O 5.296155 4.864609 3.930725
H 5.201437 5.720833 3.369783
O 6.899094 3.379947 -0.059110
H 6.815329 4.645239 4.579603
H 11.213048 6.216419 3.555609
H 9.359565 4.861420 4.287798
O 10.354592 4.865048 4.053367
O -0.811816 -0.597116 5.123100
O -0.908332 2.333655 4.778741
H -0.951621 0.388698 5.042241
H -1.058290 2.815312 5.642011
H -0.872071 -0.720951 8.533580
H -2.076699 0.003993 9.334656
H -0.290897 -0.737175 5.999191
O -1.585469 -0.875304 9.170331
H 1.234642 -0.171499 7.430503
H 2.321913 1.485553 6.033121
O 2.631939 0.882577 6.758282
H 3.064609 0.148626 6.239371
H 4.086097 1.111883 7.910627
H 4.655441 -0.624759 9.128939
H 7.124791 1.385538 5.359763
O 4.901892 0.927741 8.490885
H 7.183074 -0.214881 6.797424
H 5.700046 0.874661 7.892684
O 7.072676 0.764327 6.992541
H 5.437857 2.629130 8.920854
H 10.411780 -0.922230 4.969677
H 11.383805 -0.418919 6.177017
H 7.985610 1.214842 7.208087
H 9.975202 2.193096 8.861045
O 9.464141 2.347860 7.992700
H 10.178185 2.749407 7.403619
H -1.060913 6.834788 5.711862
H -2.439754 3.487727 7.900086
H -0.101236 3.589920 7.943906
O -0.780731 3.700901 7.191684
H -0.519396 4.522645 6.705816
O -0.267330 6.228974 5.553471
H 0.524685 6.769253 5.904445
O 1.059002 3.178210 9.246720
H 2.262851 3.395678 5.068645
H 3.977312 4.853793 5.061782
H 4.141613 4.258927 8.722776
O 3.210980 4.848357 5.679643
H 1.942869 3.565659 8.941934
O 3.225508 4.607990 8.408694
H 2.908898 6.141281 9.156238
H 3.210116 4.603282 7.414988
H 2.877306 5.819009 5.699042
O 7.690734 4.385331 5.021195
H 7.727053 4.493519 6.734654
O 7.828516 4.488083 7.732742
O 5.538513 3.599700 9.149013
H 6.334592 3.932750 8.671317
H 7.751323 3.399896 4.826688
H 8.420170 6.006384 8.249461
H 10.541376 6.287163 8.536423
H 8.424033 3.713198 7.943906
H 11.349619 4.672545 7.348548
H 10.768629 4.468849 4.859222
O 11.278480 3.972121 6.606866
H -0.894347 1.944562 12.827932
H -0.237773 0.587089 13.559250
O -0.078361 1.521346 13.278921
O -2.062563 2.896740 11.901318
H -2.800109 1.866517 10.675130
H 1.131369 1.447388 11.914819
H 1.510586 1.752253 10.365312
O 1.772550 1.240535 11.154011
H 3.374877 0.406682 11.735513
H 1.024971 -0.553359 10.905777
O 4.208601 -0.146503 11.891429
H 4.257719 -0.750572 11.103026
O 6.463092 1.642917 12.424137
H 5.794303 0.885056 12.239146
H 6.588306 1.736014 13.421395
H 8.428356 0.993922 12.047049
O 9.375592 0.653540 12.024191
H 9.457166 -0.063286 12.665679
H 10.534400 2.070364 12.382745
H -1.295978 3.410699 11.478752
H -0.078188 5.584429 11.086327
O 0.077326 4.610319 11.328284
H -2.682913 3.552476 12.322818
H 0.550910 4.709769 12.203024
H 1.297128 6.008016 14.064245
H 2.379188 5.432081 13.109741
O 1.529852 5.164816 13.542907
O 3.773234 6.086920 12.173416
H 0.725224 3.693984 10.040926
H 3.413099 6.420931 11.305959
H 4.405589 5.297071 11.979128
H 5.854662 3.186760 12.046279
H 5.690995 3.939008 10.795102
O 5.709789 4.120458 11.753100
H 6.699108 4.977379 12.979821
O 7.368186 5.378348 13.681176
H 7.386691 6.346232 13.445970
O 11.026379 2.946481 12.729100
H 10.382552 3.289198 13.455326
H 8.631340 4.234515 14.141818
H -1.070327 0.176578 17.746894
H -0.198508 1.387560 17.142831
O -0.286060 0.740209 17.935971
H 0.003680 2.243307 15.017447
O 0.006331 2.255824 15.995578
H -0.444941 1.414872 19.549254
H 1.340716 0.064756 18.038474
H 2.957785 0.406048 18.261245
O 2.270300 -0.330945 18.056417
H 0.848634 2.848418 16.201650
H 4.295882 2.272609 19.264425
O 6.958184 0.063771 19.334241
O 7.057802 1.727791 15.114087
O 4.475056 1.568632 18.586164
H 6.294295 2.291453 15.488451
H 5.266351 1.058929 18.940928
H 7.037164 -0.151193 15.493959
H 4.793684 2.645827 17.099899
H 7.918679 2.297586 15.156604
H 7.007359 -0.828609 18.836944
H 7.919198 0.366860 19.482932
H -2.625672 5.961313 16.950260
H -2.300586 4.927544 18.156137
H 0.025102 4.876567 19.286453
O -0.954221 4.579422 19.443791
O 1.919112 5.624290 19.313930
H 1.994119 4.380880 15.193378
H 3.114418 3.541234 15.936658
O 2.220375 3.953955 16.034779
H 2.072032 6.333238 18.638629
O 4.952277 3.136555 16.288994
H 5.427423 4.041170 16.470787
H 7.357751 5.441121 16.989757
H 6.859546 5.461898 15.538371
O 6.505291 5.495983 16.438633
H 5.421312 6.893856 16.259623
O 10.765343 5.078203 16.451601
O 9.196937 3.613962 14.704430
O 8.764682 5.475834 18.311401
H 8.464906 6.383707 18.542166
H 9.647293 4.211402 15.403240
H 8.632723 4.917300 19.095955
H 10.294694 5.018576 17.299990
H 10.907161 6.753498 16.243101
H -1.415767 1.567490 20.770290
O -0.576814 1.968384 20.328479
H -1.515587 1.335214 24.045947
O -2.116333 -0.642876 23.390958
H -2.722212 0.232678 22.014006
O -1.548383 2.297787 24.359615
H 2.287485 -0.594216 22.901892
H 0.657953 2.374739 21.423977
H 1.996402 1.612027 23.133190
O 2.557924 1.005604 23.703974
O 1.373992 2.816674 22.050483
H 4.281701 0.900825 23.562566
H 5.726853 1.716184 23.570975
O 5.302497 0.781338 23.479841
H 6.342547 -0.186414 22.469792
H 6.850668 -0.579278 21.031433
H 7.780955 2.863176 24.341909
O 6.961182 -0.825779 21.971430
O 9.456128 1.277853 20.400249
O 9.456243 0.120893 22.936060
H 9.533551 0.982930 21.346463
H 8.509065 -0.255557 22.655849
H 9.550269 1.505251 24.080589
H 10.345253 1.098099 20.030326
H 10.065711 -0.645458 23.148231
H -0.925909 3.640345 19.679175
O -1.744454 5.887807 21.679198
O -0.270841 4.590043 23.726358
H -0.947280 4.980982 23.105951
H -1.419508 5.439112 20.852778
H -0.668200 3.701535 23.987027
H -1.352975 6.824054 21.624897
H 3.136728 4.291863 19.905262
H 2.899559 3.399532 21.062581
H 0.940763 3.500658 22.610549
O 3.635798 3.647620 20.447267
H 3.469422 5.682919 24.146141
H 1.930440 6.162121 20.167826
O 3.453857 6.503162 23.573699
H 2.209145 6.875527 22.283913
O 6.122961 6.733159 22.952048
O 6.771573 3.029290 24.167222
H 5.395312 3.915318 21.305841
O 6.270659 4.272303 21.751679
H 6.360303 3.776837 22.596633
H 6.384920 5.951395 22.401398
H 4.402534 6.524568 23.245405
H 7.823731 4.016645 20.915844
H 6.624452 6.706544 23.811037
H 9.058809 2.990220 20.433173
H 10.457265 3.780622 24.480949
H 10.249959 5.416891 22.804245
H 9.584974 5.168872 21.450387
O 9.942227 5.934321 22.048588
O 8.682532 3.955857 20.436252
O 11.062410 4.578531 24.306261
H 11.127554 6.792542 21.277003
H -2.821616 0.986929 28.875316
H -1.461218 2.300926 25.363979
H -1.549952 1.851527 27.412619
O -0.826678 2.458490 27.053710
O -2.817637 0.764471 27.937333
H -2.712790 -0.228886 27.838146
H 2.273096 1.214139 24.623837
H 0.933626 2.307636 26.400024
O 1.896179 2.139036 26.141131
H 2.740447 1.734558 27.633850
O 3.229659 1.458649 28.459086
H 3.195703 0.451834 28.491122
H 7.380696 -0.113096 25.469976
H 4.849258 1.570999 27.886762
H 5.933065 0.181349 24.814868
H 5.898360 1.062444 26.751649
O 5.802143 1.722393 27.496647
H 7.359481 1.475422 28.474008
O 6.386649 -0.192848 25.632287
O 8.199719 1.388715 29.062794
O 9.474518 2.187415 24.788102
O 11.094059 1.040819 26.768348
O 10.633788 -0.146610 29.126392
H 10.017401 1.883899 25.561346
H 10.873147 0.207425 28.235367
H 8.726807 2.231142 28.873776
H 9.647235 0.107943 29.142913
H -0.347981 4.592617 29.235823
H -0.896508 3.359722 27.533124
H -1.469692 5.367928 28.487095
O -0.525016 5.015218 28.385954
H 0.270630 5.689761 26.758755
H 0.345776 5.493410 25.160927
H 2.316961 3.083864 25.976688
O 0.740737 5.985418 25.968871
O 3.096143 4.567345 25.502367
H 2.454962 5.259113 25.819943
H 4.003428 4.606220 25.995756
H 1.383244 6.712256 29.122602
H 6.453868 3.531134 24.991451
H 5.731004 3.235025 26.868897
O 7.826383 5.824972 27.648003
O 5.752968 4.114883 26.374620
H 7.524416 6.631155 26.221902
H 6.468338 4.687372 26.860784
H 7.458753 6.400342 28.414319
H 8.508719 5.164973 27.970553
O 9.540296 3.920604 28.720880
H 11.248041 5.025607 25.145294
H 10.517278 3.659490 28.711820
O -2.457329 1.923609 30.492389
H -1.529532 2.401738 30.605610
H -2.611263 -0.179170 33.394747
H -2.616901 1.274331 31.171361
O 1.892207 1.196575 33.230068
H 1.929102 0.176076 33.242562
H 2.205110 1.960186 31.700693
H 2.770373 2.075028 30.202467
H 1.232105 1.454902 33.914665
H 3.132001 2.285616 34.165327
O 2.522625 2.593142 30.997384
H 4.078026 -0.883208 31.939986
H 5.407476 -0.071315 31.414147
O 6.655698 1.549650 31.336455
H 7.206826 1.554866 30.519747
H 7.434713 1.622491 32.030290
H 5.609883 2.794064 31.930807
O 4.711822 -0.818027 31.179177
H 10.007370 1.795510 32.243172
O 9.233371 2.184577 32.715598
H 9.442407 2.106608 33.688045
H 11.269140 0.936730 30.495705
H -0.748102 5.309104 33.422165
H -0.170704 4.323607 31.406626
O -0.701048 5.735459 32.552458
O -0.055682 3.602914 30.674182
H -0.146122 6.598388 32.721046
H -2.269328 6.721421 32.244120
H 0.836550 3.196483 30.727358
H 4.108810 3.401692 31.745698
H 6.630736 6.664361 32.421235
H 4.409855 3.062590 33.881267
O 4.979372 3.492881 32.248738
H 5.862905 5.206585 31.990793
O 6.518147 5.952713 31.718517
H 9.447192 4.207937 29.665732
H 8.124314 5.133462 31.603994
H 8.991763 3.813527 31.872479
O 8.984960 4.675075 31.384776
H 10.876318 4.799150 31.743151
H -0.923338 0.731139 35.087262
O -1.561118 -0.045453 35.023072
O 0.429120 1.954580 35.417925
H 0.112827 2.888554 35.617305
H -2.359734 0.291979 36.508922
H -2.500273 1.280288 38.890771
O -2.871595 0.562759 37.313313
H -1.042269 -0.849858 35.341950
H 0.805091 1.523041 36.217164
H 0.958957 0.538353 38.431373
O 1.414317 0.354399 37.591747
H 2.432456 0.475116 37.776798
O 4.143861 0.905413 38.647511
O 3.853712 2.835154 34.665584
H 4.614395 0.037676 38.784715
H 4.824411 1.895888 35.552286
H 4.799218 1.200913 37.039617
O 5.278169 1.225275 36.162034
H 7.005975 1.808648 36.827860
O 7.781474 2.135559 37.411967
H 7.917584 1.456848 38.095973
H 7.469822 -0.575458 38.892015
H 5.305610 -0.520080 35.691681
H 8.907307 -0.214730 38.425925
O 8.242610 0.033508 39.105785
H 9.961655 -0.167563 34.809716
H 10.538320 2.551763 35.699793
O 9.877256 1.864132 35.259107
H 9.121589 1.808999 35.906102
O 10.464126 -0.775262 37.655405
H 10.475079 -0.848868 36.673365
O -2.904220 5.340999 36.535628
H -2.807792 6.336126 36.590877
O -0.532857 4.779289 35.241224
H -0.150872 5.480541 35.852808
H -1.474765 4.704276 35.586631
H -2.817391 3.331638 39.229783
H 0.882589 6.743454 37.821151
H 1.903731 5.915427 36.965123
O 1.145579 6.629334 36.912065
H 2.375146 4.054616 38.523394
H 3.339538 4.186588 36.181457
O 3.156444 4.687755 37.007936
H 4.015534 5.252233 37.204652
H 6.220043 5.753537 37.622185
H 7.661044 3.849684 37.694428
O 5.385685 6.334682 37.696086
O 7.631874 4.853460 37.872906
O 9.874431 6.079262 37.111268
H 8.477531 5.197910 37.453182
H 10.543682 5.382429 36.879319
H 9.683439 6.690223 36.326300
O -1.150580 1.607683 43.604491
H -2.023886 1.593653 43.083626
H 0.205677 0.796817 42.791631
H -1.310569 1.894175 39.817325
O -2.343800 1.846499 39.712394
O 0.302274 1.522388 39.871034
H 0.585274 1.189645 40.733990
O 0.901567 0.275419 42.241277
H 1.775329 0.269858 42.717730
H 0.811237 2.388549 39.755563
H 4.731653 1.370661 41.569530
O 4.904774 2.129501 40.979323
H 6.797977 2.733840 40.889492
H 5.395081 0.328801 43.319069
O 4.986060 -0.151287 42.503663
H 4.304414 2.888391 41.245499
H 4.389966 1.477092 39.447165
H 5.575178 -0.877280 42.279767
H 8.274260 2.032437 41.257816
O 9.233890 0.521103 41.572905
H 8.910189 0.236840 40.669030
H 8.719255 0.083462 42.276688
H 10.721299 -0.431215 41.570477
H 11.349619 2.430644 40.372476
H -1.029742 5.674507 42.286459
O -0.403901 5.768854 43.091857
H -0.595124 4.968038 43.565823
O 0.183442 6.246424 39.489919
H -0.751388 6.071792 39.784816
O -2.289315 6.026785 40.927745
H -2.740144 5.439928 40.229884
H 1.508136 6.322944 43.383674
H 3.291113 5.011590 42.221558
H 2.451405 4.330638 40.125841
O 2.418504 6.293503 43.820511
O 3.651421 4.576441 41.405323
H 0.692721 5.362216 39.449179
O 1.803877 4.043229 39.363197
O 7.756050 2.896790 41.179532
H 7.508158 3.022887 42.883653
O 7.334692 3.004564 43.847691
H 4.333124 5.264235 41.079457
O 5.366257 6.378874 40.366377
H 6.400485 6.186728 40.495705
H 5.211007 6.323195 39.350110
H 7.040796 3.909989 44.092017
O 11.113949 3.364775 40.721022
H 7.911531 5.314999 39.471089
H 9.962750 5.207420 44.138324
H 9.434106 3.131470 43.666608
O 8.063725 5.582358 40.457629
H 8.197240 4.714979 40.867700
O 10.303169 3.516608 43.426783
H 10.791401 3.304119 41.647636
H 11.072383 2.995713 43.814589
H 9.695200 6.839935 40.015166
H -1.268456 0.989528 44.354463
H -0.167914 -0.007947 45.850083
H -1.068505 1.040336 46.609885
O -1.133182 0.320408 45.925466
O -0.691900 2.454134 47.686908
H -1.278325 2.876364 48.412719
H 0.514464 1.622510 48.852991
H -1.108537 2.975488 44.591149
H 2.598641 2.074776 48.774293
H 2.686003 0.933949 45.673560
O 3.237326 1.762134 45.801526
H 3.300049 2.281516 47.400775
O 3.301951 2.654207 48.334968
O 1.551246 -0.536752 45.785419
H 1.073668 -0.595559 48.669717
H 4.153950 1.544553 45.430419
H 6.300752 1.784656 44.559469
O 5.666206 1.048245 44.879058
H 6.254805 0.355033 45.351306
H 8.338308 -0.094434 48.567214
H 10.503731 0.170452 47.840573
O 8.835706 -0.765447 48.055942
H -0.816866 3.075628 46.944278
O -1.749891 6.528271 48.989780
O -1.005760 3.825868 45.139313
H -1.905100 4.233956 45.306480
H -0.840554 6.473659 48.512735
H -0.595556 6.826376 44.676598
H -2.412419 6.877096 48.320934
H 2.299217 5.527369 44.434641
H 2.425417 3.103737 45.318264
H 2.608367 4.748964 46.622557
H 0.954403 3.846325 45.254843
H 1.498531 6.146554 47.699106
O 2.956286 5.116036 47.487882
H 3.037514 4.346331 48.077319
O 1.938799 3.971681 45.173954
O 0.690323 6.785762 47.759625
O 7.029612 5.574386 45.149616
H 4.569198 5.767096 47.568120
H 6.580351 5.595979 46.017014
H 6.009277 6.115168 48.249816
O 5.470371 6.258100 47.444891
H 6.699166 6.333175 44.614480
H 10.891941 5.892954 46.144980
O 9.593276 6.012661 44.650484
H 8.629437 5.737280 44.842403
H -2.389181 1.476803 52.450724
H -2.181834 -0.805074 51.791649
H 1.425236 1.191930 50.206079
H 1.727584 1.834353 52.322640
O 1.782241 1.019508 51.787030
H 2.747394 0.726362 51.798399
H 0.962266 -0.351792 52.732237
O 1.304132 1.108883 49.205978
O 4.446578 -0.255419 52.044324
H 5.996018 2.448974 51.853944
H 5.337086 1.117828 52.346030
O 6.054416 1.839400 52.598172
H 6.953053 1.627964 49.650276
H 7.673900 0.416167 52.625234
H 7.734374 0.597673 50.576357
H 4.866668 -0.934203 51.415745
H 4.181967 -0.808270 52.807619
O 8.045969 -0.308016 52.047581
O 7.822981 1.054309 49.717013
H 10.873320 -0.063280 53.188438
H 9.078294 -0.251929 52.140550
O 10.818092 -0.565630 52.311092
H 8.961555 2.439978 49.906208
H 11.418971 -0.119380 51.668835
O -0.712077 6.661474 53.662522
O -1.551491 3.125795 52.451198
H -0.538132 3.221805 52.708965
H -1.687791 3.434452 51.549929
O -2.095360 3.789021 49.739278
H -2.001657 4.759698 49.572230
H -2.369632 4.208521 53.552025
H -1.473013 6.027161 53.873924
O -2.782960 4.922045 54.111913
O 1.127362 3.354223 53.339735
H 1.568575 4.274413 53.365317
O 2.075255 6.138080 53.431698
H 1.085457 6.231233 53.617163
H 2.202960 6.883687 52.788611
H 4.868801 2.956706 49.373856
O 5.781274 2.931233 49.869435
O 7.341725 5.129093 49.646487
H 6.237107 3.839759 49.798494
H 7.547994 5.512179 50.539406
H 7.353889 5.803190 53.786402
H 8.178908 4.554383 49.589047
O 10.922380 4.596773 52.134628
O 8.316401 6.049634 52.299605
H 9.183447 5.578278 52.382566
H 10.530134 4.109416 51.351022
O 9.441773 3.361053 49.892470
H 10.204300 3.247228 49.334240
H -2.695305 1.025220 57.155739
O -2.851834 1.291807 56.215802
H -0.011949 -0.720039 57.145317
H -1.086878 2.313135 58.707970
H -0.302432 -0.390629 54.843469
H -1.447843 0.412445 55.651532
O -0.522710 -0.011098 55.706899
O -2.410586 0.872332 58.876263
H 0.186393 1.595656 55.753324
O -0.230221 2.919532 58.653077
H -0.059591 3.032114 57.723029
O 0.659406 2.485482 55.880343
H 1.560447 2.215813 56.220125
O 3.022755 1.564502 57.055249
H 3.502052 0.693538 56.822826
H 3.763549 2.300480 57.130454
H 0.817561 -0.146503 58.472823
H 2.281951 1.413139 58.871821
H 6.272849 2.527790 54.242544
H 6.742288 -0.412500 58.822257
H 7.711833 1.309772 55.616357
O 6.659330 2.894041 55.130726
H 7.773345 1.868005 58.823856
H 5.892307 3.019610 55.744738
O 7.964049 0.872232 58.706727
H 7.926462 -0.302436 55.652894
H 8.276623 0.751578 57.803148
O 8.347186 0.576776 55.909418
O 10.861791 0.825479 54.753520
H 9.945340 0.724542 55.167085
H 0.499256 6.504732 58.558864
H 3.579417 6.625819 54.453412
H 1.017754 3.109161 54.281449
O 3.472362 5.763581 57.279560
H 2.568352 6.212590 57.404861
H 3.767930 6.247491 56.456634
H 4.489757 6.608431 58.340594
H 5.595413 3.400537 58.013188
O 6.936450 5.696917 54.681986
H 5.199477 6.413524 54.744045
H 6.884163 4.704684 54.827421
O 4.969803 3.362321 57.216435
H 4.406800 4.181974 57.238286
O 7.808050 6.025027 58.768134
H 6.823861 6.377555 58.735447
O 4.344769 6.894923 55.066240
H 8.362060 6.140653 55.785360
O 9.159176 6.422500 56.425308
H 8.313461 6.133748 57.935141
H 9.936750 5.817188 56.299415
H -1.709196 7.649884 2.089750
H -1.923911 10.000889 1.719152
O -2.397165 8.206861 1.643882
H -2.362455 7.942276 0.695240
H 2.438826 9.123083 3.110801
O 2.492901 8.169637 3.293453
H 2.739553 9.784325 0.771937
H 3.431777 7.916351 3.000434
H 0.851309 7.225921 2.891027
O 2.886069 9.448054 -0.131374
H 5.855238 7.721067 2.914204
H 7.113261 9.553135 4.178651
O 7.370838 8.598622 3.907566
O 5.077664 7.165095 2.579656
H 5.135487 7.038106 1.611840
H 5.629772 10.227998 -0.074730
H 8.180810 8.729376 3.327449
H 10.401057 9.677047 2.771665
H 9.619275 8.879778 1.519321
O 9.894435 8.822091 2.507354
H 11.216968 7.580772 2.766128
O 8.632435 8.798865 0.007342
H 8.483123 7.807818 -0.054689
O -1.921905 10.998777 1.663299
O -2.643646 14.595244 2.882766
H -2.666180 11.573707 3.012680
H -2.732830 13.699172 3.378191
H -2.248615 11.204293 0.730433
H -0.396816 11.832266 2.117380
O 2.833435 10.790813 2.158269
O 2.100482 14.214719 3.917721
O 0.488343 12.328856 2.217603
H 0.577567 12.737565 1.319875
H 2.009367 11.358901 2.183856
H 1.426879 13.629118 3.429775
H 3.640468 11.283763 1.820844
O 1.239922 13.614555 -0.043783
H 3.518424 13.197183 4.526066
H 2.526983 14.742131 3.228132
H 5.084352 12.495955 0.226720
O 5.179819 11.888509 0.994720
H 5.891326 12.328228 1.567920
H 7.181172 11.743631 3.893596
O 7.502682 13.076660 2.709340
H 7.184054 13.903558 3.154811
H 5.420216 14.376357 4.273201
O 6.672647 11.229716 4.582327
H 5.816613 11.753549 4.725855
H 8.271262 13.354804 2.213346
H 10.590551 13.916489 1.745900
H 9.546234 14.010961 0.527084
O 9.655825 14.211392 1.500946
O 10.937196 11.159474 3.615595
H 11.076995 11.982793 3.107242
H -2.506167 7.934241 7.150944
H -2.535623 10.021917 6.109273
O -2.535048 8.026014 8.931690
O -2.516881 7.976487 6.169496
H -0.606238 7.304135 9.670470
H 2.463575 7.914845 5.016494
H 3.191668 7.747118 9.266912
O 2.331529 7.413484 5.848249
H 2.787604 7.937255 6.589279
H 3.294860 10.084313 8.477858
O 3.823331 9.226783 8.468502
H 4.781808 9.511391 8.683397
O 6.511633 10.291586 9.097436
H 7.004131 10.391331 8.264562
H 7.121562 9.756454 9.699368
O 8.244628 10.646688 6.926692
H 8.672213 8.077990 5.403192
H 8.979426 9.076757 6.503949
O 9.271881 8.183949 6.184300
H 8.928983 7.433320 7.602585
H 11.140928 8.333284 5.779321
O 8.943914 6.915513 8.413076
O -2.414336 11.007377 6.237239
H -2.557955 11.411567 5.331831
H -1.299765 11.685128 7.266533
H -1.038683 11.989321 8.810119
O -0.683955 12.175943 7.943373
H -0.293203 13.951578 8.134049
H 2.140266 11.990075 9.274196
H 1.272460 11.979278 7.991338
H 3.505280 13.106603 7.891382
O 2.256741 11.860074 8.300683
H 7.322989 14.065887 9.609418
O 4.407088 13.571054 7.644569
H 7.691426 10.981954 6.186373
H 5.093057 13.324673 8.356879
O 4.400285 12.971643 4.998119
H 4.426689 13.277280 5.958805
H 8.959710 11.370702 7.146739
H 11.056991 12.847793 7.161247
O 10.032275 12.881439 7.420199
H 10.424463 13.476142 9.104660
H 9.687071 13.637843 6.907329
H -0.612361 8.592407 11.417819
O -1.020875 9.232306 12.118878
H -1.713635 8.717826 12.581237
H 0.255307 9.539890 13.144205
O 0.059294 7.155365 10.428614
H -2.763864 7.584789 14.241775
O 0.831235 9.662923 13.982231
H 1.717287 10.065795 13.712502
H 3.931193 10.279597 13.049637
H 1.007849 7.182733 10.053184
O 2.747376 6.989835 9.706177
H 4.226588 7.600859 13.125729
O 4.721449 8.387958 13.561560
H 5.688401 8.347157 13.287922
O 7.395742 8.025073 12.967918
H 7.721864 8.251869 12.066649
H 8.634914 8.040075 9.955773
O 10.725508 9.893297 12.001334
H 9.367175 9.179578 10.887242
H 8.149391 8.458201 13.522299
O 8.468769 8.777648 10.619941
O 9.548021 8.992956 14.373472
H 10.356149 9.621243 12.828701
H -1.214750 11.174979 11.027052
O -0.894906 12.065213 10.676255
H -2.146155 13.304272 11.021189
H 0.101355 12.130119 10.957473
O -2.830432 14.003428 11.177520
O 3.158116 10.967140 13.005580
O 1.980745 12.509200 11.052337
H 2.002190 13.428498 11.439669
H 2.553110 11.893782 11.570892
H 3.468730 11.783554 13.591168
O 3.891934 13.033724 14.545435
H 6.082492 14.620416 12.800455
H 5.229109 13.507591 13.418612
O 5.931277 13.623531 12.738574
H 5.948342 13.113633 10.847686
H 7.664964 12.952937 13.509923
O 6.196176 12.943772 9.904729
H 6.380827 11.960132 9.780494
H 10.682328 10.900978 12.084000
O 8.546192 12.925191 14.036236
H 9.330395 12.796634 13.416540
H 10.654484 12.991541 11.537790
O 10.745570 12.642654 12.440362
O 10.558094 13.822142 10.008120
H 9.219708 14.683690 14.405152
H 8.906615 14.622424 9.828932
H -2.888623 10.081613 17.109492
H -1.104305 7.126929 15.600074
O -2.066973 7.293777 15.792585
H -2.059502 8.141013 16.365916
H -1.263752 10.003148 18.955732
O -1.933400 9.812949 17.265290
H -1.338603 10.365908 16.674550
H 0.192706 10.692889 14.971199
H 0.222753 10.192030 19.533918
H 0.760263 8.158401 14.830620
H 1.344458 7.328616 15.986992
O 0.684356 7.230629 15.228019
O 1.996592 9.886078 19.087961
O 2.397030 7.609898 17.487646
H 2.316875 8.483560 18.050850
H 3.372398 7.658421 17.120388
H 2.185826 10.718374 18.528606
H 7.845464 10.665018 16.166772
H 4.757250 7.968515 15.185916
O 4.856695 7.740338 16.154277
H 5.852586 9.117120 16.703625
O 6.415474 9.880931 17.079766
H 6.931204 9.417924 17.815466
O 7.983073 8.169323 18.824035
H 11.149806 8.205480 16.970334
O 10.962965 8.724103 18.801888
H 9.279490 9.797256 14.916661
H 10.092922 8.442947 15.014664
H 8.963342 8.498500 18.790933
H 11.341202 8.107618 19.492881
O 11.146405 7.714539 16.104180
H -0.979569 14.081705 16.496961
H -1.917708 14.068146 15.184495
H -0.590829 13.875561 19.003756
H -0.488432 12.161505 15.584915
O -1.033028 13.843422 15.553708
O -0.036283 11.296380 15.799454
O -0.008190 14.126650 18.265272
H 3.212768 13.775754 14.683527
O 1.531109 14.695114 14.677132
H 0.581245 14.454320 14.910739
H 1.456505 12.784519 17.953085
O 1.984278 12.077077 17.488061
H 1.305810 11.749657 16.776994
H 3.859996 12.121017 17.261381
H 4.187386 12.686092 15.426038
H 7.632623 13.483110 18.314244
H 6.078341 13.562956 17.831810
O 6.835564 14.140334 18.208306
O 4.868397 12.179960 17.086220
H 5.314834 11.254636 17.172320
H 9.777292 12.624199 18.889350
H 11.256861 14.663352 18.911675
H 9.153123 11.965531 17.521695
O 8.943799 12.549688 18.279721
H 8.472458 11.781295 15.259522
O 8.732745 11.062051 15.858671
H -1.220486 8.590964 22.468608
O -0.690470 8.346654 21.681034
H -0.793253 9.066965 21.015800
O -2.328920 8.689830 23.763782
H -2.792101 9.574540 23.582048
H -1.597979 8.792211 24.476330
O -0.743144 10.268549 19.782507
H 2.633427 9.878859 19.845809
H 1.029335 7.790556 21.696193
H 3.394363 8.692403 21.584038
O 1.983685 7.494585 21.549989
O 4.048913 9.469460 21.542646
H 4.081023 10.430627 23.034418
O 3.927676 10.716114 23.979033
H 4.937692 9.120007 21.214885
H 6.903187 7.896892 21.919142
O 7.161283 8.691022 21.391467
H 7.688485 8.354313 19.763143
H 7.839930 9.250824 21.913990
H 10.385146 9.938242 22.990302
O 9.474403 10.169432 23.303377
O -1.807396 12.867064 19.903781
O -2.350804 13.197622 22.706657
H -1.931480 13.114449 20.860358
H -1.522983 13.181239 23.340328
H -1.420471 11.961262 19.848118
H -2.834530 14.096896 22.850493
H 0.324561 14.648663 24.169235
H 5.117673 14.394499 22.919953
H 5.301113 12.293327 24.115112
O 5.740919 13.218149 24.232359
H 7.832205 12.997191 24.370747
O 8.802673 13.006983 24.087221
H 9.491813 11.158156 23.356494
H 8.971413 14.641507 23.248010
O -0.239318 8.814683 25.785716
H -0.519470 8.898233 26.734891
O -0.700754 9.010470 28.442150
H -1.586985 8.681418 28.847247
H -0.851997 9.995678 28.486385
H 0.018138 7.852324 25.694819
H 0.742017 8.121993 28.776899
H 1.015050 10.369738 25.549977
H 3.254506 8.110506 28.325790
O 1.635172 7.673674 28.994044
O 4.249936 8.340063 28.117350
H 3.956732 7.669343 24.870709
H 4.166114 9.975591 24.548159
H 4.269940 8.292859 27.119203
O 7.257211 7.160073 25.439006
H 4.668470 10.000951 28.387434
O 4.487912 8.319537 25.482352
H 5.489626 8.018921 25.459613
H 5.747376 7.733873 29.054148
H 7.913606 7.949997 25.586395
H 8.053809 10.651020 28.570175
H 9.068091 9.603541 25.058187
H 10.733348 8.605213 26.385871
O 9.032867 9.247623 25.939027
H 8.585393 9.936108 26.475051
H 11.328923 10.118775 29.307120
H -2.889803 13.269057 27.086871
O -1.523312 11.489969 28.885442
O -0.419138 13.253929 24.666058
H 0.246769 12.527279 24.842641
H -1.539165 12.159811 28.184975
H -1.714154 14.244473 27.560126
H -1.014297 13.285754 25.448836
O -1.901635 13.410734 26.969150
H -2.477502 11.320359 29.204439
H 2.239492 11.109570 24.831686
O 1.436887 11.286022 25.434446
H 1.907098 13.627611 28.902970
O 2.864335 12.724634 27.732031
H 3.621789 13.219969 27.316156
H 2.312730 12.231559 27.033281
H 4.045915 11.520414 28.302282
O 4.862229 10.972036 28.610857
H 6.735889 10.954083 27.736709
O 5.086312 14.257781 26.724291
O 7.671191 13.842606 27.780469
H 6.036084 14.085723 27.080476
H 7.421684 13.969029 28.728578
H 7.894928 12.872965 27.729070
H 5.459014 13.547640 25.113376
O 7.749709 11.047614 27.693481
H 9.482589 12.990914 24.856556
O 10.971901 12.943395 25.968694
H 10.784829 13.742171 26.569323
H -0.954429 8.877769 33.701013
O -1.880766 9.152586 34.038190
H -2.550171 8.645136 33.484519
O 0.575295 8.158652 33.137217
H 2.108426 8.662524 30.540176
H 1.077524 8.616637 32.439296
O 1.985604 9.413655 31.194396
H 2.907053 9.868753 31.344390
H 1.195313 8.106425 33.915257
O 6.843116 7.991301 33.518391
H 6.832970 8.772689 32.898517
O 6.832048 10.466595 32.288768
H 7.440824 10.304266 31.504333
H 7.663754 8.921522 29.834261
H 6.444644 6.911809 30.277849
H 6.124748 8.260531 34.177940
O 6.633676 7.498540 29.508217
O 8.136017 9.806860 30.092443
H 9.162289 9.605801 30.053479
O 10.892460 9.496138 29.908163
H -1.712488 11.203477 33.411091
H -0.512426 11.683496 32.584138
H -0.225459 11.609236 30.123650
H -1.532074 13.656675 33.527984
O -0.946369 11.870557 33.441173
O -1.959187 14.559464 33.534912
O 0.337192 11.648532 30.974823
H -2.344192 14.675655 32.590948
H 0.922171 10.822952 30.925140
O 1.325618 13.985726 29.635887
H 1.147038 13.188458 30.161608
H 5.256435 10.933118 31.618501
O 4.429513 11.285458 31.167926
H 4.625406 11.175983 30.179136
H 4.832136 12.929397 31.442097
H 4.985310 13.971666 32.700498
O 5.115482 13.913225 31.717096
O 4.342002 14.284961 34.219687
H 7.178693 11.115784 32.959035
H 6.351483 14.480622 30.714805
H 8.748022 12.749994 34.087576
O -1.459759 9.197029 38.982911
H -2.226800 8.539490 37.348784
H -2.454363 8.640114 35.813488
O -2.814203 8.202843 36.570684
H -1.141385 10.894952 38.283984
O 2.040683 8.613813 35.375348
H 1.579292 9.470527 35.587164
H 1.733360 7.939200 35.999071
H 3.844950 8.944810 35.181060
H 5.741554 7.265530 37.521695
O 4.777427 9.308951 35.094842
H 5.195211 9.294325 36.028916
H 6.359727 9.568137 38.379262
O 6.393279 9.125280 37.482079
H 7.292838 9.421816 37.209804
H 10.268522 7.087006 38.624002
H 9.393982 10.826154 36.896610
H 8.557779 7.928215 34.545316
H 11.090889 8.077111 34.848384
O 8.601708 10.429811 36.368935
H 9.151048 8.909218 35.674508
O 9.285832 8.006555 35.224821
H 10.694435 10.859486 38.695713
H -0.048245 11.283951 34.855431
H -0.760946 12.493696 38.451921
O -0.993019 11.726934 37.783548
H 0.147249 11.270832 36.407248
H -2.635738 12.243674 37.123763
O 3.001771 13.913162 37.536973
H 3.816529 13.473820 34.563140
O 0.649697 11.081385 35.582486
H 3.921854 11.275414 35.176264
H 3.102946 13.228443 36.778355
H 2.831533 13.364094 38.334317
H 2.352513 11.755495 35.212978
O 3.322013 12.072369 35.378605
O 6.717095 14.650358 35.681259
H 4.615144 14.522617 37.866569
O 7.920063 12.399286 34.503095
H 7.507467 13.207415 34.937564
H 5.837309 14.580430 35.199891
H 8.321936 11.159662 35.771149
O 11.079878 11.272840 37.928983
O -0.440053 9.437006 43.487894
H 0.010252 8.652292 41.890422
H -1.875768 10.421399 43.060236
H 0.374658 10.067364 43.666727
H -0.718182 9.002121 39.603141
O 0.382228 8.626493 41.010648
H -2.202899 9.338203 39.632393
H -2.637365 6.969057 40.865805
H 0.402065 7.668966 40.668083
H 2.000991 9.617978 41.078569
O 2.755378 10.288824 41.185572
H 3.638104 9.772900 41.214884
O 5.178839 8.931063 41.338942
H 5.360953 8.023629 40.898670
H 5.696126 8.865215 42.203260
H 6.172251 10.044766 40.547519
H 7.602761 10.411607 39.976735
H 7.374470 8.308112 44.061402
O 6.618630 10.606640 39.838821
O 6.457500 7.925516 43.838690
H 9.557129 9.259236 43.603543
O 9.498154 10.171817 39.878673
H 9.705922 9.183407 39.759293
H 9.743625 10.417319 40.810557
H 11.120405 10.744299 42.624109
H 9.443676 7.794887 44.237925
O 10.254398 7.466966 39.525627
H -2.586608 11.605282 42.212024
O -0.367311 13.799042 39.722343
H -0.996063 13.506336 40.422928
O -2.549022 13.314504 41.485502
H -2.136550 14.065949 42.062859