18432
Timestep: 3500000
H 2.732972 5.397615 3.781131
H 4.240633 5.522868 4.442918
H 2.781249 5.187212 5.970532
O 2.400738 4.527200 6.589415
O 3.331175 5.968196 4.407648
H 1.566578 3.684572 2.726888
O 1.476782 4.653417 2.819296
H 5.623998 3.996373 4.759784
O 5.840119 4.862884 4.343703
H 7.865310 5.099155 4.960917
H 5.794498 4.752083 3.353814
O 8.740103 4.971384 5.407153
H 8.594364 4.899321 6.346853
H 8.187779 4.558623 2.837813
O 8.267829 3.564930 2.764849
H 10.355017 4.380764 4.564546
O 11.234958 4.233716 4.136605
H 12.552886 5.303920 5.100269
H 11.040622 4.490852 3.251024
H 12.898366 5.550032 6.524689
O 13.318645 5.594784 5.680715
H 3.838892 7.398639 3.633638
O 4.368926 8.035862 3.115570
H 1.108096 7.831765 6.084483
H 0.926291 8.981768 4.232681
O 7.979132 6.433390 3.168908
H 5.271713 8.122893 3.588193
H 5.287944 6.863228 6.293842
H 8.947617 6.667384 3.403631
O 6.573173 7.926891 4.899728
H 7.034327 7.262682 4.327153
H 6.853273 8.820476 4.633121
H 7.632159 7.957287 6.524011
H 13.447910 8.666309 4.724837
H 9.929796 8.120559 6.934051
O 10.371439 7.477663 3.836230
H 10.423845 7.774715 4.798521
O 10.765207 7.825274 6.471324
H 10.256228 8.338098 3.372652
H 13.437872 7.264876 3.239782
H 10.973287 6.948424 6.901117
H 11.995157 6.898971 2.809998
O 1.024011 3.364017 10.291361
O 3.815237 3.154163 9.446461
H 2.555779 4.933426 7.461498
O 2.139345 5.926355 9.072870
H 4.654107 3.606507 9.182648
H 1.231900 6.283486 10.427520
H 3.030513 6.095226 9.488563
H 1.873453 3.745072 10.001436
H 5.778792 3.727972 7.323196
H 5.588976 5.251662 7.749818
O 5.848119 4.355670 8.073182
O 8.278383 3.859592 9.384707
H 8.640953 5.311724 10.203603
H 7.396280 4.035465 8.894447
O 8.812638 6.165039 10.703985
H 8.862521 3.411055 8.745581
H 13.234991 3.162432 7.790058
H 12.147845 3.048822 9.922992
O 9.995124 3.161170 7.461417
H 10.743431 4.718557 7.373175
O 12.246531 3.997153 10.151971
H 11.674336 5.141063 8.533185
O 11.434029 5.411310 7.638096
H 11.629240 4.104857 10.887523
H 2.928795 9.813417 10.545967
O 4.942140 6.648719 7.208346
H 0.914015 8.560389 7.462198
O 1.155695 7.715472 7.033793
O 4.414706 6.449076 10.538537
H 2.086630 6.644988 8.432344
O 4.614998 9.211279 7.934492
H 4.073500 7.259614 11.050064
H 4.028079 9.588394 8.638441
H 4.798852 7.515504 7.665430
H 5.528714 9.661606 7.955490
O 8.133210 8.211533 7.362111
H 5.164687 6.744417 9.971986
H 7.858876 9.131727 7.534450
H 7.508711 7.041373 10.088063
H 7.192833 7.648667 8.687973
O 6.722515 7.451890 9.530827
H 6.422441 8.822888 10.569279
O 6.151607 9.436358 11.305639
H 13.588604 7.886071 7.954090
H 9.708279 6.507584 10.507687
H 12.347122 8.457162 7.157091
O 9.692938 9.458743 10.363075
O 13.287500 8.684374 7.473676
H 10.403460 8.788835 10.225031
H 12.197883 7.162996 9.998690
O 11.364583 7.364804 10.487336
H 11.627335 7.175983 11.430331
O 3.603939 2.986107 15.719491
H 1.746211 5.857805 14.068563
O 1.274380 5.248587 13.450973
H 2.677065 4.135028 13.135098
O 3.520841 3.619505 13.175854
H 4.292365 4.198726 12.981386
H 3.639851 3.296559 14.774342
O 7.207556 5.044636 15.774514
H 7.471698 3.074908 11.951064
H 5.260763 5.783409 12.060519
H 7.513859 5.507395 15.007951
O 5.601439 5.442182 12.910319
H 7.249666 4.375474 12.830798
H 5.588986 6.165965 13.575072
O 7.894088 3.620712 12.653182
H 8.883576 6.294937 12.746970
H 9.538809 3.992076 12.464099
H 10.841087 3.239666 12.947845
O 12.050703 6.292311 12.930239
O 10.567473 4.022802 12.403852
H 12.912008 5.933766 12.696307
H 11.437015 5.504635 12.845065
H 4.608733 9.169932 11.795522
H 3.203119 9.043423 12.620932
O 3.683830 8.778624 11.831756
O 2.632154 6.829904 15.141688
H 1.992041 7.593367 15.295829
H 3.537515 7.223849 15.061198
O 7.375791 9.015541 13.613352
H 9.382208 6.577212 14.273098
H 7.868142 8.146786 13.594239
H 5.908489 8.276448 14.400374
O 5.332587 7.582169 14.838680
H 5.862770 7.392047 15.673404
O 8.611198 6.589689 13.627081
H 6.963028 9.164771 12.728557
H 11.204791 6.779171 15.517593
H 12.727042 9.021824 15.305628
H 12.342489 9.576444 12.835374
H 12.534251 8.081198 13.252306
O 13.019085 8.884095 12.980740
O 10.302405 6.465878 15.726436
O 12.596798 8.134831 15.737904
O 2.971070 5.154101 17.147901
H 1.366050 5.148283 17.909996
H 3.186991 4.296028 16.673307
H 2.892543 5.875813 16.466672
H 4.392570 5.420134 17.987255
O 5.165032 5.626689 18.663261
H 7.575480 4.030062 19.088537
H 8.275654 5.963719 18.971545
O 8.594055 5.357301 18.267488
H 6.100385 4.218406 19.440539
H 7.711129 5.401357 16.552061
O 6.839734 3.552257 19.584666
H 6.589698 3.581558 16.343219
H 5.809134 6.213371 18.235777
H 6.257449 3.132629 17.772382
H 9.559812 5.260200 18.456949
O 11.264455 4.872073 18.936603
H 11.115782 3.916720 19.166066
H 12.798444 5.271359 18.087558
H 11.694155 5.255516 19.775850
H 11.429705 3.566680 16.745129
O 10.583792 3.627124 16.179440
O 13.589942 5.799801 17.811954
H 9.847068 3.138968 16.627382
H 10.380191 5.535255 15.990087
H 13.596583 2.855539 16.647572
H 1.178283 7.392305 18.088257
O 1.580812 8.296504 18.020420
H 2.466858 8.189104 18.542984
O 3.938350 7.899435 19.481403
H 4.413893 7.015533 19.219690
H 4.739512 8.466531 19.627253
H 6.037168 8.551750 17.458015
H 7.509690 7.937791 17.472336
O 6.532865 7.686630 17.409075
O 9.257782 8.437527 17.372626
H 6.821459 9.705926 19.949751
O 6.279225 9.056888 20.434089
H 13.386804 7.376439 18.498674
O 13.399828 8.373616 18.486130
H 9.723878 7.739237 16.805483
H 9.841560 8.522128 18.189906
O 10.862348 9.267661 19.417280
H 12.499811 8.658399 18.798451
H 12.876127 8.313307 16.649187
H 11.030378 9.033325 20.348592
O 1.611340 4.691308 22.360997
H 2.048376 4.642539 23.211873
H 3.452265 5.748816 24.331783
H 2.880548 3.783990 21.625014
O 3.832333 3.497765 21.438514
O 3.355128 4.795242 24.670540
H 4.831768 4.870137 21.591364
H 4.943942 6.215727 22.361966
H 3.812473 3.129086 20.527715
H 5.112100 4.565192 24.580413
O 5.514145 5.543115 21.889634
H 6.086897 4.773587 23.409570
O 6.061415 4.358542 24.276598
O 8.380415 3.845101 22.186665
H 8.000238 3.816293 21.288410
H 6.888074 6.247907 20.941739
H 7.910407 3.035667 22.595844
H 10.010516 4.421768 22.631970
O 10.956453 4.659375 22.857987
H 11.955723 5.608024 21.919945
H 11.606177 5.423512 24.159767
H 11.448649 3.780326 23.056439
O 12.364728 6.080214 21.142991
H 13.342635 5.804531 21.147136
O 12.139814 5.938142 24.882613
H 3.211989 8.483979 20.884777
O 3.925599 7.245846 23.522956
H 3.544460 7.907592 22.870155
O 2.818417 8.950519 21.689567
H 4.576965 7.758536 24.030499
H 1.312238 7.965719 21.756705
H 0.880249 8.249390 24.860754
H 0.944458 6.418046 21.726824
H 7.160040 7.709570 20.487767
O 7.591594 6.808142 20.571756
O 8.476116 7.661738 23.132998
H 8.265513 7.197829 22.264194
H 5.960319 9.544017 23.733091
H 6.935074 7.826755 24.123425
H 6.112328 9.419247 21.337189
O 6.235930 8.035543 24.776011
H 8.954567 6.999875 23.679090
H 9.548693 8.903787 23.379797
H 11.496268 8.856605 22.525206
O 12.011733 8.624064 21.770272
H 11.959945 7.628324 21.587380
O 10.272135 9.583120 23.599139
H 10.385648 9.696501 24.550694
H 13.587935 8.779746 21.338696
H 0.926952 4.466302 26.129962
H 4.682277 3.447470 26.953756
H 2.936445 4.829492 25.555873
O 2.251859 5.040546 27.154308
H 2.269295 4.345252 27.856533
H 1.759344 5.796525 27.553203
O 1.798447 3.157821 28.835493
H 6.031917 3.197122 28.680974
H 7.600088 4.351479 25.294376
H 8.142631 3.744152 28.978867
O 5.563484 3.786738 27.183919
H 5.546681 4.750479 27.081140
O 8.416193 4.268303 25.851613
H 8.942829 5.092928 25.645731
H 8.537788 4.355490 27.560471
O 8.755083 4.346957 28.530763
H 10.268326 4.601832 29.032491
H 11.462961 5.738309 28.967399
H 12.769770 5.257524 25.257711
O 13.176819 3.295431 28.215964
H 12.402669 3.847850 28.559459
O 11.173337 4.872213 29.393214
H 13.364822 3.697846 27.313941
O 1.270246 9.163481 25.057429
H 4.542360 9.576781 28.861282
H 0.979140 8.522465 28.104194
H 3.916693 7.421736 29.164074
O 1.537786 9.269737 27.764737
H 1.426569 9.285053 26.771833
O 4.083734 7.913685 28.288648
H 3.162708 8.130556 28.005884
H 8.682703 6.502294 28.589609
O 8.628907 7.189857 27.939715
O 6.111041 6.611389 26.936474
H 6.956181 6.857209 27.448701
H 5.307316 7.142889 27.335046
H 9.236057 6.991600 26.309516
H 9.190189 7.937763 28.301138
H 6.239019 7.400939 25.539399
H 7.153914 9.472768 25.767300
O 9.523519 6.590025 25.455409
H 10.325211 9.752042 29.394183
H 10.520936 6.498490 25.513394
H 13.291876 7.352209 29.162351
H 12.984388 7.436732 27.584214
H 13.263253 7.522545 25.321672
O 12.574199 7.249325 28.449950
H 11.338123 8.679437 28.768571
O 10.479752 9.194841 28.617013
H 1.305629 3.613284 31.808552
H 2.243066 3.362679 33.722215
H 1.219645 5.878153 31.953487
H 4.538366 6.238448 30.752495
H 1.268922 3.503011 29.633445
H 5.107601 3.856046 33.710048
O 5.395660 4.783371 33.570819
H 5.637331 5.069932 31.950795
O 5.864500 5.223678 31.011892
H 5.933390 4.298480 30.653215
H 8.838429 5.065208 31.122532
O 8.431431 5.959422 31.205014
H 7.460629 5.748379 30.982980
O 8.977681 3.153329 31.299986
H 8.133931 2.893949 31.764727
H 7.268250 4.562101 33.852560
O 6.602465 2.878674 29.464767
H 11.298947 4.596654 32.568009
O 11.881902 4.100565 31.927483
H 11.581930 4.389970 31.017761
O 10.504720 5.583642 33.635103
H 9.571395 5.242169 33.792206
H 13.386855 4.475048 32.819008
H 9.644754 2.984120 31.983799
H 2.437479 6.814734 31.811729
O 1.465302 6.817966 31.988914
H 4.350305 7.732269 31.129154
O 3.837569 6.949367 30.738012
H 0.972941 8.652452 31.322706
H 4.511982 8.841402 32.855888
H 1.122249 7.658282 33.625951
H 1.172053 6.689617 29.668010
O 9.266379 9.582952 33.025212
O 5.034598 8.932118 32.038230
H 7.813985 7.096005 32.481274
O 7.382329 7.693559 33.179031
H 8.525793 8.905694 33.114262
H 6.580432 8.112822 32.745409
H 5.394322 9.860262 32.002589
H 10.786159 6.874937 32.485689
H 10.261633 7.133509 31.057494
O 11.011485 7.335822 31.633574
H 12.934350 6.838229 31.126408
H 11.827951 9.220985 31.447667
H 10.087838 9.325053 33.527694
O 1.575011 4.672060 34.949428
H 2.326607 5.266747 35.229015
H 1.517492 3.980182 35.638409
O 3.981315 6.061498 35.487390
O 4.019467 4.048660 37.540282
H 4.857812 4.157777 38.087558
H 2.746830 5.196575 37.814539
H 3.471966 3.312056 37.910104
O 1.963995 5.684906 38.241377
H 4.944251 5.322198 34.221844
H 4.340210 6.210235 36.392267
H 4.420313 3.081495 36.011031
O 8.112927 4.259029 34.288174
O 7.731258 5.259757 36.837195
H 7.110311 4.876191 37.457477
H 7.991796 4.467329 35.267403
H 7.413732 6.173269 36.694951
H 9.278631 2.950145 34.206069
H 9.566247 5.264711 36.756059
H 10.463897 4.028822 36.831488
O 10.479186 4.952921 36.526919
H 10.964072 5.623289 34.506492
H 13.196175 3.377573 34.536965
H 13.076588 3.564156 36.785132
H 11.472073 6.001430 37.453816
O 13.414037 3.984530 37.619533
H 1.027595 6.850448 37.222845
O 3.726841 8.455681 34.305725
H 3.926170 6.973894 35.083111
H 4.251568 9.035120 34.936560
H 2.730537 8.537668 34.415288
H 4.128037 8.452484 38.102633
O 3.925975 9.438995 38.077759
O 1.075151 8.112486 34.471120
H 2.957973 9.427775 38.212142
O 4.936370 6.984677 38.055631
H 0.936789 9.094812 34.298834
H 0.881006 8.799550 38.186030
O 7.150825 7.843204 35.929787
H 7.179500 7.582983 34.978663
H 7.971976 8.336151 36.125978
H 5.977992 9.277142 36.076553
O 9.342311 9.296722 36.685045
H 5.880170 7.296052 38.305069
H 11.890344 9.597033 34.748177
O 13.219907 6.675187 35.024695
H 12.595563 8.216975 37.699700
H 11.803601 8.076278 34.873192
H 10.101944 9.132120 36.095559
O 11.194031 8.883422 34.774504
O 13.123898 9.067379 37.640584
O 11.683808 6.672724 38.180215
H 13.562555 7.512587 34.580790
H 12.521896 9.856391 37.559772
H 3.634461 2.872412 41.215997
O 1.276934 4.687959 42.448647
O 3.032799 3.535780 40.742319
H 2.356440 3.914886 41.378107
H 3.500192 5.173624 40.605567
H 2.429000 6.015203 39.036852
O 3.818722 6.098357 40.493582
H 4.702271 6.117628 40.956976
H 6.565503 3.071698 38.835386
O 6.318349 4.037097 38.858913
H 5.948201 5.006593 42.268878
H 6.414513 4.344629 39.779942
O 6.307796 5.274164 41.426993
H 7.091418 5.807510 41.705773
H 9.106895 5.090280 39.437309
O 9.214230 3.275966 39.605987
O 9.310651 6.056960 39.555648
H 7.617179 2.867800 42.025686
H 8.595394 2.860902 40.229285
H 8.817734 4.774641 42.691624
H 11.546461 5.565735 42.494142
O 11.896419 3.903009 39.883744
H 12.070832 5.190550 40.975820
H 10.924330 3.634905 39.839219
H 12.216725 3.939997 38.962285
O 12.075259 5.845760 41.744699
H 13.618153 6.126823 42.477882
H 1.960690 6.506013 42.693455
H 4.693839 6.535781 38.866236
H 4.276623 8.797586 40.846767
O 1.164450 9.427943 38.899239
H 2.404748 8.495255 41.730862
H 2.035073 9.200732 40.387249
O 2.639166 9.279162 41.197853
H 8.854542 7.315732 42.544158
O 7.105678 7.876815 39.343413
H 7.762351 9.846404 42.464638
O 8.689138 6.445861 42.061328
H 9.157345 6.487219 41.196453
H 8.486154 6.520616 39.372863
O 5.228367 8.629394 41.082960
H 6.490497 8.095650 40.072182
H 5.243126 8.188004 41.983368
H 7.801476 8.573236 39.450015
H 10.863172 6.656836 38.691258
H 9.652475 9.259470 38.507504
H 11.706099 7.394678 41.111980
O 11.642624 8.413796 41.063147
H 13.226857 9.117870 40.603737
H 11.697656 8.646954 42.020141
O 9.533661 9.353272 39.480865
H 13.160500 6.467645 39.109589
H 10.315738 8.920729 39.923693
H 4.397919 4.184442 44.083639
H 1.473565 4.967580 45.454871
H 3.773230 5.737871 46.737377
O 1.090497 4.136963 45.041009
H 1.866591 3.505748 45.055545
H 1.262676 4.410088 43.387281
O 4.570715 5.587900 47.329447
H 4.899660 4.031739 47.375426
O 4.987360 3.024575 47.298059
H 3.991086 2.856561 45.692626
O 5.046912 4.930682 43.955017
H 5.826287 4.790642 44.562431
O 7.305985 4.260140 45.427413
H 8.363169 5.496926 45.532884
H 7.787988 4.051588 44.618101
H 7.436125 3.559971 46.094105
O 9.122493 6.182128 45.626942
O 8.604815 3.886953 43.060477
H 9.363778 3.476626 43.581749
H 12.038502 5.245732 45.047093
H 12.456311 3.525906 46.144929
H 10.573805 5.750892 44.882075
O 13.268041 3.952894 45.728859
O 11.458997 5.742157 44.414858
O 11.099772 3.198025 47.131534
H 9.665912 5.844329 47.249550
O 2.524129 6.385395 45.784691
H 2.439965 6.844260 44.925631
H 2.139613 7.012060 46.496608
H 4.541562 9.303230 45.761701
H 1.124643 7.706227 43.205735
O 4.528471 9.736277 44.885898
O 2.047300 7.289712 43.234001
H 5.050006 8.271680 44.104959
H 5.118741 6.684422 43.704126
O 5.486058 7.579224 43.519403
H 5.336201 7.390835 47.227314
H 8.699383 7.049929 45.605460
O 8.026287 8.701765 46.035851
H 7.140632 8.628272 46.425271
H 8.636114 8.765048 46.814313
H 8.621751 8.846788 44.371463
O 5.498944 8.364068 47.109191
O 8.946227 8.839046 43.437298
H 9.653711 9.537678 43.385451
H 11.931065 7.292786 44.064580
O 12.250083 8.184722 43.821711
H 12.164576 8.745973 44.628492
H 12.822536 8.224089 46.927160
H 11.081549 9.510469 46.565253
O 11.926792 9.606290 46.040912
H 1.616771 5.529156 50.342078
O 3.462556 3.429215 50.356507
H 4.271691 5.743734 48.243854
H 3.664628 4.378565 50.247321
H 1.310658 3.092245 49.651912
H 4.253750 2.905403 50.576010
H 2.479661 3.076026 51.789224
O 7.042873 4.749014 51.731078
H 8.540259 4.053625 50.381650
H 6.624292 3.854027 51.612416
H 6.315054 5.481167 51.655057
O 9.185710 3.593828 49.786403
H 8.631481 3.176398 49.063018
H 9.584625 6.158857 51.611770
H 9.633582 5.300004 48.710640
H 10.893700 4.029159 47.590406
O 10.236923 5.715447 48.080075
H 10.641964 3.902235 51.342681
H 12.443080 5.763981 50.317904
O 13.248633 4.164268 50.366737
O 3.064644 9.488140 51.305747
O 3.348961 6.371835 49.946629
H 4.638416 9.466148 50.199081
H 3.995297 6.712809 50.622150
H 2.995708 7.149817 49.415073
O 1.867554 7.812416 48.042387
H 2.030981 8.763084 47.780351
H 0.896474 7.596038 48.096442
H 2.601071 8.761345 51.730755
O 7.334144 8.696099 51.489770
H 5.404216 8.773295 48.015467
O 5.454249 9.371449 49.618694
H 8.120340 8.197132 51.166734
H 6.696312 8.839775 50.723529
H 13.519930 7.475245 51.247816
H 10.608812 9.310747 48.510412
O 13.239006 7.520043 47.494572
O 12.211010 6.704326 50.201665
O 9.666684 7.025844 51.185740
H 12.362412 6.788821 49.239180
H 10.518105 6.891122 50.700648
H 10.244079 7.826329 48.172247
O 10.071622 8.743224 47.874032
H 4.553881 3.263176 55.039717
H 1.651803 5.269754 54.998530
H 2.095598 4.602657 53.603554
O 1.956382 5.467832 54.077447
O 2.181172 3.005917 52.725758
H 5.052739 5.422968 55.108093
H 8.635754 3.393325 55.746465
O 5.593702 4.635353 55.499558
O 8.167290 5.569308 54.128702
H 6.450755 4.610382 55.057861
H 7.810382 5.216705 53.245415
H 13.505413 3.632897 56.001879
H 9.709154 5.285754 54.854671
O 10.574423 4.412349 52.168576
H 11.441751 3.518792 54.903503
H 9.960684 3.872321 52.716175
H 11.765249 5.511232 52.852442
H 11.277480 5.597011 54.846595
O 12.423724 5.992477 53.440313
O 10.601450 5.084170 55.340732
H 13.183820 5.372673 53.555799
H 13.643172 5.144625 56.322222
H 1.313468 8.107897 53.823434
H 3.468409 6.488274 54.405490
H 3.784282 9.627104 56.163289
O 4.408287 6.760276 54.648521
H 1.540478 6.788950 53.099511
O 1.421890 7.753632 52.919095
H 4.365415 7.245700 55.528578
H 5.050253 6.938388 52.911181
H 7.884718 7.021048 56.178041
H 6.018892 7.605440 51.991821
O 5.394373 6.835234 52.020518
H 7.948090 6.528257 54.121003
H 8.459591 8.760559 55.059099
H 6.863724 8.717361 55.087526
O 7.661966 8.174652 54.933007
O 12.904337 6.842084 56.319961
H 13.400240 7.943699 54.836635
H 11.743576 7.808505 53.287894
O 11.120158 8.535031 53.112863
H 10.428530 9.052344 54.514138
O 9.987968 9.310074 55.367437
H 10.475377 8.075156 52.546904
H 4.284844 11.276713 5.964104
O 3.453341 10.906275 6.265399
H 2.104746 10.604673 3.285627
O 1.528643 10.541671 4.097964
H 2.172014 10.613873 4.868986
H 0.922004 12.349655 6.714532
H 2.456130 11.877729 6.952808
H 3.774738 10.151821 6.860878
H 5.850395 12.816644 5.365777
O 5.984782 11.855456 5.677555
H 6.554229 11.387289 4.994932
H 7.497798 10.585093 3.089323
H 8.471122 10.405905 4.340602
O 7.510822 10.285062 4.000585
H 5.058979 13.244979 3.124900
H 9.890980 11.826676 5.192113
O 9.898239 10.824815 5.295657
H 10.821371 10.600690 5.006109
H 12.763644 11.104425 4.908219
H 12.395462 10.457013 3.500698
O 13.199933 12.806097 5.469030
O 12.457598 10.268905 4.436942
O 2.028623 13.755839 2.988679
H 2.388573 13.811043 6.132405
H 2.288816 14.244876 4.666410
O 2.710779 14.503897 5.520624
H 3.147645 16.417801 3.459667
H 4.473280 14.349393 5.044680
H 1.510388 15.726798 6.356678
H 1.234677 14.315003 2.765713
H 4.139049 16.766528 5.780248
O 4.387463 16.862910 6.734479
O 7.068767 16.498979 3.703904
O 5.367532 14.220472 4.680112
H 5.830729 15.066876 4.615828
H 7.390051 15.921583 2.946331
H 8.790965 13.773455 5.751686
H 7.686985 15.599784 6.959651
H 7.904641 16.845967 4.108075
H 10.131905 16.664872 4.605626
O 9.476570 13.398248 5.150652
H 10.225031 14.098900 5.087024
H 12.104705 15.664974 4.748321
O 11.180750 15.467833 4.454144
H 11.236193 15.382447 3.473133
H 12.053123 14.159602 6.562673
H 13.652542 13.328570 4.800626
H 1.137614 12.068923 11.140891
O 1.753609 12.599643 7.226856
O 2.838021 10.369944 9.744569
H 1.254100 13.020573 8.699925
H 3.530612 12.180677 9.938821
O 4.192515 12.940291 10.006066
H 1.892583 10.369832 9.459275
O 0.857493 12.969296 9.615893
H 6.678243 11.201481 7.115419
H 6.414770 10.408542 11.043657
O 6.920609 10.592667 7.872943
H 6.879013 11.154916 8.665953
O 6.768795 11.803001 10.313327
H 7.544850 12.266288 10.801057
H 5.943830 12.358126 10.309935
O 9.058967 13.186297 11.312584
H 9.666632 9.952773 9.540033
H 10.108945 10.807816 7.123334
H 9.997749 11.977926 8.227486
O 10.240578 11.020778 8.077166
O 12.910361 10.995869 8.881364
H 11.922776 11.052980 8.723561
H 12.793862 11.973494 10.499019
O 12.416414 12.635436 11.107510
H 13.089098 10.099254 8.410808
H 9.569130 13.239874 10.483782
H 4.476817 15.969549 7.111279
H 4.022962 13.400492 10.835730
H 2.946056 16.402204 10.942277
H 1.528571 14.412115 10.473176
H 4.707733 13.988885 8.762379
O 1.890179 15.002808 11.189777
O 5.201948 14.644992 8.219356
H 5.558660 15.399053 8.871834
O 7.758799 14.611612 7.054312
O 6.196343 16.720188 10.026902
H 6.876594 14.378174 7.432199
H 6.765449 16.259819 10.723313
H 9.127487 13.983555 8.199597
H 9.458449 16.077433 10.486043
O 10.168610 16.542626 9.943236
H 11.502446 15.525506 7.026600
O 9.845421 13.545010 8.723130
O 11.838298 14.684544 7.347063
H 13.281065 15.243708 9.780210
H 12.429902 14.241174 10.667482
H 10.670947 13.953541 8.382327
H 11.020803 16.019648 10.083541
O 12.512681 15.200285 10.371527
O 0.915294 10.884788 15.972589
O 2.770547 10.702458 13.959754
H 2.164153 10.754015 14.738162
H 2.206850 11.080358 13.249291
H 4.281977 11.177020 14.558231
O 5.148146 11.316882 15.062113
O 0.965944 11.673070 11.978845
H 8.452589 10.361529 13.921528
H 5.756213 11.785946 14.455344
H 7.757255 12.342417 13.723776
O 8.941491 11.234637 14.012516
O 6.935280 12.928061 13.777669
H 9.094025 11.184258 15.696986
H 13.711795 12.098937 14.153037
H 12.708972 11.756998 15.790559
H 9.721664 11.165351 13.371290
H 9.683054 13.206100 12.081678
H 11.418328 11.497809 12.014864
O 10.971176 10.706329 12.402237
O 13.370485 11.080133 15.418852
H 13.081736 12.633136 11.874666
H 11.063170 13.082453 15.110676
H 10.493806 10.303015 11.591202
O 0.872264 16.317267 13.776162
H 2.584088 13.785797 14.686476
O 2.497885 14.047904 13.761787
H 3.433629 14.110457 13.435521
H 2.057796 14.433770 11.967162
H 1.529245 15.544693 13.770670
O 4.884025 14.135591 12.386139
H 5.104934 15.047689 12.723442
H 9.543545 16.483776 14.626607
O 5.325653 16.498979 13.932511
H 8.334032 14.747322 11.548292
O 6.793763 15.349964 15.765308
H 8.287597 15.957880 12.559448
H 8.162039 15.620205 14.857147
O 8.867772 15.810670 14.198208
H 6.094516 15.776841 15.173076
H 7.192884 13.672977 14.358111
O 8.192618 15.720964 11.613869
H 5.654216 13.592977 12.683709
O 12.551599 15.638382 12.944237
H 12.724571 15.707555 11.991013
H 9.962949 14.492172 13.793929
H 13.436430 15.585534 13.428683
H 11.415394 14.305466 13.220594
O 10.616225 13.776429 13.503143
O 2.632556 11.469646 18.103225
H 3.120011 11.488608 19.826566
H 2.723396 12.273469 17.531290
H 3.400986 10.881253 17.845550
H 1.273192 10.957664 16.886080
O 7.366062 10.805684 18.774278
H 7.146038 11.654052 19.263084
H 8.159104 10.952951 18.226409
H 5.336273 12.510498 16.442014
H 5.961971 10.439903 17.804686
H 5.182056 10.260714 16.464411
O 9.354512 11.115197 16.649726
H 8.723629 12.818888 17.462860
O 5.777489 13.201220 17.002319
H 5.364510 13.137881 17.859225
O 6.092817 12.743599 20.297714
O 5.156790 10.022451 17.395346
H 9.817365 12.827976 18.539538
O 11.440773 12.797176 16.009254
O 10.861061 12.070381 19.556132
H 11.824708 12.339612 19.428909
H 10.779672 12.180677 16.393182
H 10.689171 10.249943 19.399567
O 13.442814 13.044528 19.577560
H 9.458192 10.145594 16.775225
O 2.588664 13.620522 16.424731
H 1.650233 13.794886 16.585926
H 3.127629 14.414976 16.744806
O 3.817914 16.039115 17.184727
H 3.714857 16.035525 18.157926
O 4.063111 16.162931 19.880029
H 3.095079 16.619205 16.885111
H 0.999457 14.867267 20.025610
H 3.432656 15.499026 20.248020
H 0.958020 16.333087 19.334152
O 9.117706 13.403578 18.100587
H 7.300837 15.640458 19.151637
H 5.818343 15.862676 19.902049
H 8.835392 15.111869 17.979502
O 8.361779 15.991878 18.017243
O 6.639479 15.324718 19.802985
H 6.293999 13.687452 20.185136
H 7.731000 15.947277 17.250088
H 6.394951 14.589340 16.230802
H 11.544556 14.335031 16.800099
O 11.743885 15.255938 17.132772
H 11.320929 15.374705 18.009921
O 11.019722 15.848538 19.731109
H 13.436430 15.734484 17.135033
H 11.880151 15.668060 20.179537
H 10.346214 15.285335 20.206672
H 13.581912 14.498231 20.310258
H 11.134367 16.484113 16.050495
H 2.867591 9.933867 24.657780
H 4.397059 11.995878 20.689125
O 3.431858 11.682888 20.761539
H 2.584077 11.889622 23.704071
O 1.990785 12.617876 23.403917
H 1.345117 12.733277 24.193901
O 3.533402 10.688881 24.522159
H 2.976403 9.912548 21.534025
H 5.050778 10.656398 23.237608
H 2.798170 13.273983 21.089636
H 1.044648 11.849790 22.070426
O 5.883939 10.188343 22.992747
H 6.582954 12.515659 21.115371
H 7.204673 11.496350 22.902081
O 7.495687 12.409347 22.676333
H 8.486103 12.426289 22.495110
H 7.026811 13.018104 24.483772
H 10.615092 12.306569 20.479798
H 10.699158 12.563065 22.889591
O 10.130154 12.020114 22.314587
H 10.230951 11.091858 22.567309
H 4.948992 13.505570 24.721903
H 3.469552 13.674212 24.065010
O 1.669162 15.689098 23.263235
O 2.506467 14.229841 21.007639
H 2.436707 14.536043 21.924306
H 2.063758 16.036366 24.112496
O 4.243645 14.176152 24.431978
H 1.439465 16.554857 22.804309
H 4.202420 16.668406 23.417646
H 9.046767 16.678280 23.773362
H 8.145205 15.007240 20.925695
O 8.562704 15.104800 24.213445
H 8.811917 14.674333 22.266401
O 9.030551 14.830464 21.344834
H 9.178503 14.426982 24.670109
H 7.939647 15.392377 24.916693
H 12.926988 13.497660 23.433152
O 11.957371 13.740692 23.567427
H 11.980639 14.737953 23.645548
O 13.540625 15.423513 20.693110
H 1.247390 11.123275 28.348409
O 4.613665 10.576622 29.016770
H 3.612655 11.208886 25.362860
O 3.524444 12.071784 26.920107
H 2.670661 12.121995 27.442186
H 4.038978 12.924695 27.142463
O 1.384016 12.070830 28.592947
H 4.136923 10.994354 28.263720
O 6.580844 12.879982 25.311066
H 6.311811 10.879121 28.921474
H 7.378777 10.480352 27.740187
H 6.768795 11.942526 25.523408
O 7.272678 10.939318 28.634888
H 7.620474 12.468365 28.250099
H 7.826546 13.320772 26.946273
O 8.059955 13.294460 27.887168
O 7.625158 10.293085 26.135830
H 8.617890 10.184416 26.048395
H 11.054264 13.263156 25.034494
H 10.457462 10.279845 27.114144
O 12.269388 11.873353 29.076962
H 13.310975 11.817588 26.055179
O 13.191593 10.877943 25.744203
O 10.256691 13.113196 25.591784
H 10.278416 11.461287 26.054963
O 10.384669 10.470197 26.170018
H 12.211783 10.758447 25.791797
H 11.228265 12.928791 28.514503
O 0.862811 15.138069 26.886619
H 1.342274 15.067605 27.734049
O 2.688380 15.419530 29.027807
H 3.504419 15.388281 25.385849
H 2.192235 15.813699 26.166303
H 3.504321 14.932849 28.708432
O 2.920450 16.194573 25.600668
O 4.933487 14.166502 27.979072
H 5.847007 15.211001 25.338255
H 6.132302 16.517886 26.109987
O 7.596896 15.792437 28.765717
H 8.064845 16.104361 27.972503
H 7.614142 14.833718 28.561397
H 5.421076 13.864620 28.817672
O 6.506610 15.614651 25.974797
H 5.659694 14.547768 27.434972
O 9.438784 16.711099 26.906701
H 6.340022 16.637158 29.336145
H 11.108781 15.317930 28.917975
H 12.272168 15.144520 26.188969
O 11.127829 16.291011 29.118365
H 11.010713 16.062790 25.914874
H 9.746374 13.619232 28.257528
H 10.496174 13.492723 26.506460
O 13.624228 13.573285 26.434800
O 10.734216 13.737157 28.112862
H 10.043154 16.785827 27.707183
O 11.941052 15.947501 25.677173
O 2.702573 11.443895 30.871372
H 3.220195 12.090746 32.365035
H 3.475328 11.126192 30.323611
H 2.164359 11.960983 30.229607
O 3.323283 12.682729 33.138490
H 4.153056 12.495575 33.672199
H 1.272800 10.220433 30.967152
O 6.364114 11.280977 32.061166
H 6.212662 11.775175 32.873978
H 6.223421 11.973550 31.356679
H 8.412796 10.777409 29.910825
H 9.149160 12.613163 30.739950
H 9.153484 10.354123 31.260414
O 9.294075 10.827059 30.432205
H 8.721982 11.112953 33.699549
O 11.274185 11.985556 32.828968
H 11.810396 10.729723 31.946704
H 11.365819 12.894120 32.500602
H 10.473729 11.950717 33.342971
H 11.995157 11.187792 29.699237
H 12.747273 12.564355 29.644644
O 12.287509 10.096561 31.343165
H 3.938278 14.191804 32.413382
H 3.754121 15.648256 31.689029
O 1.474754 14.547881 33.491999
H 2.102182 13.790678 33.429007
O 4.379005 14.886173 31.852000
H 1.095018 14.523196 32.561764
H 2.223133 14.885051 29.755068
O 0.847511 14.562018 30.827923
O 8.869265 13.545683 30.580586
O 6.189238 13.460970 30.411423
H 5.079318 15.573024 33.287571
H 7.169873 13.603299 30.564165
H 5.761088 14.113935 31.016899
H 8.382371 16.289384 30.349131
O 8.889033 16.799571 31.033105
O 13.399674 13.826696 30.406685
H 9.497007 14.091831 31.134107
O 11.239951 14.513042 31.911816
H 12.055130 14.528077 31.337081
H 11.127880 15.374256 32.381294
H 10.678360 16.346496 29.958419
H 13.688577 14.523981 29.790440
O 13.604614 16.449891 32.327778
H 1.738572 11.359855 34.247364
O 2.965006 12.132710 36.597987
H 3.463065 11.995878 37.481005
H 1.999161 12.045977 36.857007
H 4.776139 9.871762 36.809521
O 0.896786 10.870538 34.201277
H 5.402054 13.133673 35.142388
O 5.628708 12.334844 34.637537
O 8.790193 12.029147 34.086384
H 5.570320 11.529619 35.163170
H 8.319978 12.358687 37.432442
H 8.644917 11.890800 35.033094
O 8.979689 11.901908 36.888988
H 9.217370 10.300490 36.705450
H 6.268157 12.720317 38.329027
O 7.150465 13.163912 38.341572
O 5.298456 9.969772 35.975120
H 12.693168 11.513910 34.064687
H 9.865035 12.062639 37.333647
H 12.086636 12.152682 36.868691
O 11.743576 11.448047 37.434165
O 13.261091 10.864928 34.574383
H 12.041179 11.741402 38.323266
H 1.903589 16.085175 34.083800
H 3.679511 13.605038 36.229995
H 4.444966 14.820366 36.874451
O 4.316334 14.359211 36.019968
H 1.844676 16.297182 37.340592
O 1.053031 15.795579 37.694962
H 5.056302 15.409656 34.815799
H 8.974901 16.528433 37.471529
O 5.552153 15.865088 34.085307
H 6.561333 16.808772 36.974862
H 7.251828 15.016833 34.233581
H 8.117252 13.667199 34.270568
O 8.107059 14.618344 34.539119
H 7.406164 14.794166 37.568494
O 7.717204 15.566067 36.996559
H 7.907009 15.154619 36.103957
H 12.584701 16.853541 36.061478
O 10.335970 16.145596 33.955124
O 12.317213 13.425794 35.659730
H 9.556415 15.581215 34.137316
H 12.895380 13.729415 34.927408
H 11.388367 16.153057 35.395917
H 12.268616 14.261595 36.193708
O 11.888285 16.163773 36.257238
H 10.561244 16.628742 37.470075
H 2.891987 10.489104 42.382533
H 4.504713 11.039740 38.835763
O 4.510510 12.012877 38.961100
O 1.142444 12.549264 41.699312
H 4.287336 12.330468 42.267155
H 4.541274 12.131476 39.938499
H 1.949010 12.151728 42.134441
O 4.772139 12.855185 41.594972
H 1.426296 13.130195 40.944862
H 0.903628 10.341276 38.543523
H 6.677883 12.851427 41.327337
H 8.231897 12.564748 41.034451
O 7.094867 10.519567 42.081087
O 7.518698 13.272412 40.982012
H 7.447966 13.176030 39.291027
H 6.362725 9.925620 41.674116
O 13.238440 11.329280 42.633585
H 9.777108 11.031213 40.087687
H 13.391334 11.277835 40.229769
H 10.181634 11.365802 41.599333
H 12.737852 12.602336 40.720137
O 13.035662 12.165473 39.888967
H 10.373395 13.047838 39.671564