18432
Timestep: 8500000
H -0.165640 2.098614 4.435346
H -2.904460 1.923915 3.723139
H -2.294774 0.018657 -0.246422
H 2.786909 0.346273 2.427665
O 2.810061 1.385624 2.328154
H 2.406935 1.462026 1.433497
H 1.957732 2.209083 3.539421
O 1.462150 2.557817 4.348507
O 1.654793 1.177422 -0.108763
H 0.847231 1.757998 -0.209277
H 4.538517 2.094358 2.432563
H 6.046889 2.211613 3.011938
O 7.289740 1.697308 4.065314
O 5.346916 2.673979 2.420986
H 7.958710 1.056507 3.608646
O 9.750443 -0.421679 0.619559
H 9.158549 -0.456614 2.246976
O 8.840316 -0.451941 3.169597
H 9.242611 0.219947 0.010791
H 10.025779 -0.778905 4.485143
H -0.555787 4.432227 0.007917
O -0.504300 5.403538 0.302562
H -0.863922 5.567440 1.229773
H -1.352703 6.215830 3.440809
O -1.692234 6.425871 2.527372
H 6.216167 3.178096 0.910246
H 5.160318 4.045064 3.511403
O 5.212567 4.794287 4.167801
H 5.173770 5.656014 3.636586
O 6.774171 3.264454 0.090212
H 7.336794 4.087380 0.145547
H 11.256622 6.495361 3.508469
H 9.431402 5.487090 4.541160
O -1.154893 1.867695 4.661016
H -1.135529 -0.005806 4.840651
H -1.219244 2.402627 5.512661
H -1.967910 -0.227906 9.300276
H -0.805680 -0.851274 8.315346
H 1.075854 -0.185169 6.817862
H 2.298209 1.436402 5.656446
O 2.601304 0.809242 6.343522
H 3.150406 0.135542 5.833646
H 4.209719 1.296178 7.427915
H 7.283274 1.313415 4.965769
H 4.532339 -0.431934 8.778496
O 5.017829 1.157925 8.002492
H 7.401110 -0.287886 6.443759
H 5.819935 0.963502 7.431189
O 7.371839 0.791571 6.506020
H 5.358520 2.878345 8.770281
O 10.725233 -0.838557 5.179832
H 10.599314 -0.038172 5.786861
H 10.801212 1.374595 7.874993
H 8.342356 1.101924 6.768041
H 10.617327 2.298398 6.645245
O 10.348689 1.409516 6.969110
H -2.587366 3.533967 7.628508
H 0.022233 6.295615 5.297170
H -1.532020 6.739488 5.653708
O -0.952602 6.005538 5.215421
H -0.185455 3.531531 7.546068
O -0.980430 3.674348 6.917563
H -0.878402 4.514373 6.421378
H 1.887145 3.433805 4.657147
H 3.598310 4.859478 4.904073
H 2.629421 6.555499 8.759389
O 0.915860 3.241140 8.981053
H 1.815399 3.658943 8.684985
H 2.401889 5.817154 5.276134
O 2.997178 4.868574 7.969635
H 2.923567 4.829748 6.973217
O 2.676884 4.854663 5.312931
H 3.939348 4.583788 8.196240
H 7.744226 3.369267 4.756836
H 6.900321 4.665808 4.901668
H 6.376091 4.097976 8.419987
O 5.507129 3.890748 8.891947
O 7.828923 4.308212 5.129160
H 10.676043 6.249477 8.564093
O 10.369069 5.835421 4.665307
H 8.772478 3.661209 8.027432
O 11.390450 3.955944 6.293820
H 8.571100 6.033221 8.455701
O 8.108012 4.359077 7.850351
H 7.974760 4.361638 6.826135
H 10.862872 5.115281 5.171844
H -1.069682 2.041923 12.687799
H -0.368901 0.746261 13.291662
O -0.176275 1.729323 13.035831
H -2.555927 1.944115 10.478180
O -2.965643 1.283064 9.795389
O -0.154861 -0.951093 13.492195
H 1.260512 1.946313 10.165385
H 0.868593 1.560555 11.642274
O 1.476941 1.324476 10.887640
H 3.158893 0.541838 11.443467
H 1.042033 -0.430767 10.753117
O 4.003029 0.037533 11.690905
H 4.217571 -0.480805 10.860140
O 6.222287 1.882924 12.288458
H 5.458170 1.243222 12.076734
H 6.497276 1.888172 13.270471
H 4.152504 -0.945595 13.136544
H 8.380634 1.048385 12.094889
O 9.345955 0.739921 12.117865
H 9.255659 -0.164492 12.569288
H 10.683260 1.986161 12.512860
O 11.167018 2.831912 12.803869
O -2.110682 3.229822 11.684953
H -1.391050 3.916491 11.580370
H -0.121266 5.756201 10.721570
O 0.058814 4.798996 11.023055
H -2.872156 3.704002 12.124531
H 0.564493 4.903300 11.894057
H 1.172346 5.927385 13.765585
H 2.402819 5.773463 12.829166
O 1.693509 5.224112 13.257971
O 3.677349 6.642503 11.808999
H 0.711174 3.888450 9.739557
H 3.250286 6.881483 10.956806
H 4.441407 5.997063 11.677988
H 5.692630 3.537852 11.872570
H 5.740203 4.307716 10.568298
O 5.590729 4.472892 11.539061
H 6.569040 5.277306 12.837143
O 7.102045 5.726069 13.562671
H 7.341066 6.654116 13.236067
O 9.153353 3.897816 14.378852
H 10.479111 3.229433 13.416065
H 8.552163 4.589846 13.967488
H -0.868697 0.310222 17.505485
O -0.152252 0.988976 17.700960
H -0.022967 1.576506 16.926504
H 0.183186 2.387486 14.822478
O 0.420255 2.534728 15.756992
H -0.429447 1.667026 19.376834
H 1.522581 0.335815 17.851672
H 3.188741 0.592905 18.100955
O 2.437708 -0.065906 17.887743
H 4.275363 2.630257 19.203622
O 7.127506 1.996475 14.766943
O 4.589323 1.986532 18.506010
H 6.555761 2.571828 15.387413
H 5.419719 1.548032 18.900768
H 6.874052 0.009360 15.126166
H 5.109511 3.020402 17.054716
H 6.917814 -0.522779 18.685651
O 6.891892 0.281949 19.317311
H 7.852421 0.622980 19.378442
H 7.969045 2.599881 14.636647
O -0.775138 4.795373 19.396179
O -2.872068 5.537936 17.435248
H -2.117991 5.155877 17.926969
H -2.518218 6.059774 16.710732
H 0.200131 5.205154 19.329097
H 2.119146 6.335100 18.688687
H 1.318333 3.049335 15.698421
H 2.488514 4.393848 14.652183
O 2.678409 4.036345 15.535328
H 3.679023 3.773135 15.594554
O 1.915008 5.836990 19.480583
H 5.807118 4.373164 16.333355
O 6.439311 5.858899 16.102762
O 5.370067 3.459950 16.202761
H 6.646809 5.765931 15.115809
H 7.298285 5.964672 16.637400
H 8.649562 5.234777 18.933863
H 8.473875 6.771503 18.409107
O 10.641345 5.280847 16.337879
H 9.678391 4.326385 15.136582
O 8.660011 5.804662 18.140300
H 10.027511 5.324380 17.116978
H -1.369902 1.706034 20.630095
H -1.572521 1.093305 24.154164
O -0.535944 2.147402 20.251647
O -1.822558 -0.596588 23.471195
O -1.760303 2.061396 24.325234
H -2.466584 0.176476 21.977461
O -2.767028 0.704328 21.228243
H -2.964730 0.109924 20.498132
H 2.319202 1.927794 22.999058
O 2.786736 1.248262 23.591908
H 2.392086 -0.244641 22.809774
H 0.791789 2.634093 21.536930
H 2.421132 1.450136 24.453923
H 4.598272 1.013978 23.693455
H 6.093077 1.666549 23.758157
O 5.566018 0.760944 23.774823
H 6.188512 -0.032102 22.413885
H 6.587169 -0.297440 20.882235
O 6.672558 -0.670494 21.801213
H 7.919047 2.774976 24.254223
O 9.620714 1.285211 20.135338
O 9.377190 0.053559 22.504003
H 9.623485 0.845751 20.991698
H 8.456382 -0.305237 22.299065
H 9.376555 1.129187 23.782502
H 10.000492 -0.651050 22.849476
H 10.611034 1.149017 19.875341
H -0.624682 3.805124 19.587427
O -1.398278 5.819602 21.819725
O -0.108616 4.402931 23.662979
H -0.605439 5.016739 23.057093
H -1.147664 5.510379 20.888842
H -0.768418 3.640249 23.751252
H -1.322594 6.812557 21.793654
O 1.526992 3.006523 22.144126
H 2.977491 3.386901 21.042352
H 1.001244 3.612691 22.710489
H 3.196651 5.752371 24.101665
O 3.616727 3.797133 20.459680
H 3.115649 4.554065 20.051172
H 1.871973 6.560772 20.198314
O 3.496640 6.509234 23.566254
H 4.478993 6.431018 23.361256
O 6.288739 6.695296 22.853404
O 6.978320 3.053974 23.962619
H 5.386060 4.032045 21.264374
O 6.267377 4.257233 21.709488
H 6.401610 3.644605 22.419540
H 6.391680 5.787776 22.431921
H 6.796110 6.747210 23.736728
H 7.839488 4.041995 20.728844
H 9.050297 3.100721 20.130934
O 8.680796 4.023024 20.193969
H 10.765532 4.790439 22.718763
H 9.847380 4.869710 21.402825
O 10.451976 5.411950 22.033949
H 10.545390 3.122585 24.258330
O 11.193691 3.906705 24.182259
H 11.355463 6.675522 21.356813
H -1.670121 2.142675 25.307009
H -1.556927 1.491573 27.328773
O -0.950738 2.161614 26.885742
H -1.108867 2.968495 27.398832
O -2.749994 0.399467 28.175371
H -2.820015 -0.596576 28.055134
H -2.614858 0.626187 29.118278
H 0.796725 2.074377 26.201166
O 1.824457 2.151790 26.076584
H 2.368172 1.719216 27.725793
O 2.859193 1.430118 28.511439
H 2.808675 0.419762 28.470070
O 6.165072 -0.512947 26.061822
H 4.637012 1.660403 28.074063
H 6.052085 -0.066226 25.177308
H 5.678889 0.971424 26.987408
O 5.551527 1.753440 27.610377
H 7.216071 1.570078 28.337215
H 7.125832 -0.781686 26.167714
O 11.135495 1.075421 26.553484
O 8.000625 1.502170 28.993279
O 9.348034 1.843401 24.489220
H 9.667075 0.211931 29.107861
H 10.830945 0.144449 28.113289
H 9.875843 1.506018 25.301354
H 8.537961 2.364247 28.991196
O 10.654797 -0.032202 29.063933
H -2.108921 4.805430 28.350726
O -1.161630 4.513438 28.192097
H -0.134926 5.591043 26.932646
H 0.190766 5.499644 25.421770
H -0.780011 4.190354 29.048874
O 0.437616 5.997503 26.239380
H 2.112397 3.079793 25.942836
H 4.030626 4.717308 25.876586
H 2.510095 5.309252 26.113965
O 3.016635 4.648508 25.602542
H 1.639089 6.835658 29.028934
H 7.422703 6.746707 26.161405
O 5.594019 4.291577 26.268963
H 6.336081 4.799071 26.768720
H 6.491618 3.534871 24.694516
H 5.482303 3.421570 26.712887
H 7.447644 6.355125 28.310310
O 7.702253 5.686585 27.579366
H 11.213494 4.425561 25.038917
H 8.311353 5.048333 28.016980
H 10.573391 3.771076 28.569891
O 9.631106 3.960903 28.775722
H -1.637149 2.086480 30.798974
H -2.410821 -0.495758 33.468707
O -2.464180 1.482302 30.688678
H -2.603633 0.923446 31.492121
O 1.521882 1.338588 33.085795
H 1.777138 0.354427 32.996748
H 1.754951 2.044666 31.622894
H 2.230874 2.253766 30.052851
H 0.951592 1.474668 33.895905
H 3.006647 2.507503 33.862156
O 3.744263 2.919908 34.364769
O 2.053831 2.727845 30.925520
H 3.966483 -0.699819 31.594263
H 5.322783 0.165642 31.196708
O 6.642825 1.503846 31.424622
H 6.959326 1.529062 30.496180
H 7.552144 1.665814 31.865927
O 4.695555 -0.583702 30.936889
H 10.116365 2.068702 32.130805
O 9.185453 2.238016 32.516813
H 9.282447 2.082211 33.488410
H 11.254774 1.208866 30.453561
H -0.889683 4.945434 33.508231
H -0.608834 4.141485 31.402241
O -1.020319 5.354825 32.644907
O -0.467690 3.504595 30.656297
H -0.381504 6.144017 32.667228
H -2.893390 6.301579 32.260208
H 0.516014 3.287285 30.714213
H 3.993792 3.397308 31.449086
H 5.567519 3.012644 31.654858
H 4.247362 3.470164 33.727871
O 4.896355 3.711008 31.883784
H 5.909481 5.245480 31.874379
O 6.705871 5.896688 31.770868
H 6.671692 6.556503 32.505265
H 8.413658 5.170139 31.417063
H 9.114786 3.786631 31.782059
O 9.257333 4.655601 31.260576
H 11.209395 4.669820 31.599263
H 9.550047 4.209293 29.763271
H -2.771942 1.233504 38.953470
H -1.104311 0.327679 34.970656
O -1.791999 -0.423636 35.096190
H -0.128592 2.701895 35.319580
O 0.043699 1.708582 35.240474
H -2.499727 0.071569 36.762720
H 0.455352 1.434242 36.103441
H 0.528404 0.587330 38.219966
O 0.999714 0.310963 37.405391
H 1.966294 0.256733 37.662234
O 3.699981 0.230870 38.409666
H 3.956784 0.822770 39.158468
H 4.419815 -0.443523 38.376214
H 4.326631 0.943364 36.787600
H 4.473277 1.708099 35.440889
O 4.909981 1.048246 36.009454
H 6.635897 1.676580 36.494806
O 7.598389 1.849515 36.872778
H 7.859580 1.026910 37.387296
H 5.170248 -0.772696 35.523150
O 8.075623 -0.354420 38.320739
H 10.150371 0.006265 34.970715
H 10.370801 2.448967 35.468805
O 9.700561 1.694483 35.086607
H 8.876458 1.694665 35.649755
H 8.884426 -0.858293 38.008361
H -2.875473 4.505070 38.295620
H 0.570100 5.173855 39.357632
O -0.184826 5.851742 39.345192
O -0.702958 4.409390 35.086309
H -0.063369 5.106417 35.547376
H -1.624153 4.509596 35.533150
H 0.424118 6.151236 37.475748
O -2.870341 4.417112 39.269419
H -3.011207 5.927134 36.603198
O 1.774932 3.935254 39.206622
H 1.853319 5.691669 36.866409
H 4.037901 5.162983 37.133668
O 0.949773 6.180865 36.673673
H 2.306211 4.004412 38.348715
H 3.347511 4.094304 36.037787
O 3.199076 4.604410 36.867421
O 7.618942 4.574856 37.711102
H 5.306386 6.096999 39.256622
H 6.198384 5.650678 37.435332
O 5.392006 6.220726 37.661936
H 7.757679 3.570589 37.461581
H 8.475954 5.095482 37.550330
H 10.566636 5.358592 36.795636
O 9.956556 6.048287 37.190929
H 9.668287 6.570250 36.411176
O -1.442133 1.622488 43.992583
H -2.333197 1.634974 43.495207
H 0.110706 0.952278 42.968189
O -2.491404 1.836484 39.737926
H -1.481099 1.664088 39.915722
O 0.351355 1.550631 39.720605
H 0.673081 1.221640 40.549465
O 0.722143 0.512812 42.318315
H 1.607225 0.474765 42.789500
H 3.991829 2.605079 41.252791
H 0.842982 2.427366 39.576559
H 4.124445 1.048987 41.629513
O 4.214568 1.673121 40.888687
O 4.229406 -0.300836 42.789143
H 4.810793 0.114155 43.543719
H 6.034765 2.002853 41.180172
O 7.019138 2.162675 41.411777
H 7.196788 2.841127 43.149080
H 7.565769 1.344526 41.204458
O 8.449396 -0.363418 40.970770
H 8.346051 -0.405692 39.980661
H 10.057707 -0.931097 41.395646
H -1.210670 5.935796 42.673490
O -0.482343 5.844649 43.367590
H -0.772707 5.091201 43.919012
O -2.597696 6.197939 41.605882
H -2.689075 5.704726 40.754820
H -0.998923 5.287821 39.412275
H -2.653412 3.415255 39.408882
H 1.466422 6.175404 43.433005
H 3.046541 5.132876 42.168019
H 2.436853 4.170530 39.929591
O 2.432488 6.075907 43.729609
O 3.475047 4.588208 41.451122
O 7.366931 3.030672 44.108177
H 4.191936 5.145889 41.072614
H 6.262932 5.542896 40.377919
O 5.408692 6.062160 40.252504
H 7.470103 3.588649 40.672976
O 7.694575 4.527574 40.376014
H 7.636090 4.492992 39.408525
H 10.831003 6.733085 40.185243
H 9.567425 4.929829 40.685535
H 9.269111 3.481136 43.666753
O 10.192286 3.891959 43.509076
H 10.390373 4.628722 41.938021
O 10.510172 4.950418 41.026781
H 10.949878 3.215032 43.712824
H 0.344190 1.619713 49.197527
H -1.598906 0.949328 44.706385
H -0.540413 -0.291395 46.234583
H -1.218701 0.914545 46.857314
O -1.468478 0.094613 46.311665
O -0.631396 2.493542 47.891172
H -1.110991 2.981646 48.640450
O 1.256309 -0.476628 46.365236
H 2.799726 0.867766 46.189524
O 3.295204 1.735914 46.214107
H 3.413155 2.173560 47.885874
O 3.404149 2.484013 48.843126
H 2.599035 2.008214 49.200622
H 0.779497 -0.648768 49.125266
H 4.234429 1.490644 45.794766
H 6.344857 1.731683 44.754777
O 5.694478 0.963075 44.906323
H 6.160626 0.307937 45.482686
O 8.797073 -0.640155 47.924862
H 8.385311 0.086679 48.449261
H 10.514387 0.302080 47.738912
O -1.505174 6.502580 49.134849
H -1.188119 3.032606 44.814895
H -0.425879 3.092172 47.182251
H -2.152788 6.725929 48.427952
H -0.587570 6.810737 48.781043
O -0.980956 3.946685 45.302271
H -1.931855 4.255632 45.492269
H 2.375545 5.321348 44.358531
H 2.222323 3.060000 45.616554
H 0.859107 3.987105 45.326378
O 2.915426 5.134126 47.756173
H 3.086493 4.401638 48.406345
H 2.566992 4.604799 46.983444
H 1.527996 6.301453 47.789447
O 1.883722 4.000495 45.467984
H 7.058513 3.961481 44.333710
H 6.606683 6.333028 44.686504
H 6.128064 5.841824 48.491820
H 4.685105 5.593115 47.641234
H 6.461250 5.618287 46.069882
O 5.642978 6.023554 47.636770
O 6.984498 5.628833 45.264831
H 10.946530 5.923367 46.093037
H 10.471894 3.625265 49.058124
H 9.890854 5.403412 44.474721
H 8.665727 6.097815 45.245605
O 9.668518 6.250607 45.000727
H -2.356048 1.618904 52.500170
H -2.278897 -0.835652 52.180055
O -2.843100 0.772381 52.249518
O 1.108849 1.136870 49.617761
H 1.126141 1.260993 50.595607
H 1.704589 2.079192 52.748382
O 1.632686 1.248840 52.184102
H 2.550307 0.818991 52.136960
H 0.934947 -0.301069 53.117545
O 4.042981 -0.218396 52.012676
H 3.911347 -0.816205 52.764632
H 5.771784 2.293558 51.773392
H 5.108126 1.033331 52.361838
O 5.775364 1.787539 52.617550
H 7.147713 0.533031 52.371124
H 7.061631 1.751369 49.835318
O 7.656181 -0.204661 51.912319
H 4.432632 -0.845563 51.333516
H 4.908826 2.785767 49.565618
H 6.161550 2.521251 54.223069
H 8.033476 0.727353 50.553524
O 8.008131 1.282688 49.739128
H 8.623870 -0.131862 52.216542
O 10.508151 -0.114869 52.484575
H 10.776040 0.466089 53.251710
H 9.224424 2.808723 49.739128
H 11.176602 0.089271 51.756309
H -2.861444 3.495838 49.972162
O -1.473449 3.309249 52.535468
H -0.538213 3.452731 52.919273
H -1.496288 3.613941 51.586252
O -1.891250 3.815626 49.879484
H -2.500609 4.492999 53.450398
H -1.943593 4.751350 49.569071
O -2.722607 5.178080 54.156403
O 1.087528 3.730254 53.690931
H 1.612444 4.608534 53.661646
O 2.054622 6.518337 53.852656
H 1.089508 6.565417 54.135986
O 5.744937 2.953147 50.146446
H 6.101679 3.901482 50.218766
H 7.557744 5.987145 53.786228
H 7.616344 5.513455 50.828641
O 7.432056 5.345409 49.867044
O 8.543734 6.032656 52.389517
H 9.457960 5.616027 52.239518
H 10.753234 4.162552 51.175899
O 9.751829 3.694460 49.769366
O 11.037000 4.877657 51.847201
H 8.224404 4.782304 49.603832
H 8.643384 6.860893 51.926426
H 0.119326 -0.661297 57.338214
H -1.188921 0.515680 55.706326
O -0.241515 0.203959 55.876146
H 0.022488 -0.350027 55.137047
O -0.552115 2.776928 58.673140
H -0.367324 2.714487 57.730233
H -1.310776 2.131005 58.876709
O -2.481917 0.938725 58.955696
O -2.778240 1.399648 56.171976
H -2.972776 1.195394 57.100240
H 0.615848 1.783346 55.947514
H 0.924249 -0.372825 58.636712
O 0.894111 2.737261 56.192274
H 1.805058 2.647752 56.594353
O 3.302190 1.479332 57.331845
H 3.491443 0.563571 56.896492
H 4.173692 2.030536 57.294643
H 2.188577 1.377049 58.622367
H 6.649176 -0.589697 58.294751
H 7.640247 1.611408 55.527519
H 7.512769 1.836264 58.836710
O 7.894048 0.941330 58.555522
H 8.069560 0.030232 55.586566
H 8.038730 0.978769 57.618449
O 8.361870 0.969013 55.880610
O 10.784758 1.481724 54.711516
H 9.824748 1.387099 55.051929
H 11.390162 1.086363 55.375497
H -1.536610 6.358075 54.316044
H -1.533233 5.969569 58.480523
O -2.160611 6.338992 57.757495
H -3.008923 4.652915 54.952227
H 3.607259 6.756688 54.719968
H 1.086523 3.432104 54.617945
O 3.739298 5.736050 57.574818
H 2.882056 6.109742 57.896005
H 3.960767 6.199760 56.740065
H 0.895705 6.434973 59.135337
H 4.653986 6.554431 58.932601
H 6.043367 3.181480 55.774242
O 6.622560 3.025299 55.000263
H 6.906152 6.163100 59.057124
H 4.696132 4.269813 57.440772
O 7.014404 5.810939 54.561458
H 5.265048 6.581236 54.866574
O 5.296456 3.486529 57.350059
H 7.043329 4.852403 54.677587
H 5.832521 3.428783 58.210050
O 7.904844 5.933474 59.005279
O 8.761220 6.597118 56.430426
H 8.060900 6.332966 55.752457
H 9.598890 6.114827 56.194000
H 11.282140 4.181515 57.191787
H 8.091904 5.997440 58.041897
H -1.332750 7.334772 2.331803
H -1.883237 10.205037 2.771721
O -1.036716 9.183332 1.702494
H -1.672864 8.956154 0.967573
H -0.122328 9.323757 1.342153
O -2.917122 8.583592 -0.298602
H 1.799510 8.419313 0.144064
O 3.125868 8.668964 3.324733
H 2.229286 8.934121 1.579608
H 3.461999 9.588286 3.587801
O 1.795313 9.240205 0.745361
H 3.983457 8.124151 3.136199
H 6.422337 7.496414 3.237841
O 5.563478 7.061894 2.844922
H 7.838103 9.273915 4.202896
H 5.631547 6.989579 1.869230
H 5.601640 10.438242 0.093158
O 5.293223 6.942687 0.106457
H 5.282022 7.936395 -0.055044
O 8.495122 8.784405 -0.159473
O 8.017080 8.290125 3.972029
H 8.755620 8.446871 3.301292
H 10.339393 9.868068 2.556949
H 9.694614 9.157595 1.278623
O 9.978091 9.006248 2.187983
H 8.243399 7.811413 -0.112858
O -2.336921 10.793792 3.413214
H -1.185752 12.417121 3.356607
O -0.699350 13.291873 3.283316
H -2.235793 14.104353 2.914856
H -0.238346 13.196331 2.414552
H -0.023175 14.011950 0.195965
H 2.219713 10.887137 0.050992
O 0.489612 13.586030 0.958234
H 1.100050 12.899286 0.492549
H 0.886866 14.277420 3.995088
H 5.295359 14.627133 4.116932
H 4.292164 11.944246 4.315079
O 4.568539 11.106719 3.841739
O 7.443487 10.923546 4.495113
H 5.118402 12.420008 0.796962
H 6.406806 10.929509 4.358793
H 4.787930 11.455490 2.944731
O 5.535708 11.680408 1.334438
H 6.413388 12.106830 1.670595
H 7.227156 13.706619 3.160026
O 7.725809 12.933749 2.735947
H 7.796707 11.575388 3.850019
H 8.570177 13.361803 2.389231
H 9.673830 13.959471 0.450668
H 10.758431 13.923125 1.635441
O 9.796516 14.211633 1.431616
O 11.049528 11.139989 3.565599
H -2.212006 9.656395 6.379771
O -2.152973 10.636356 6.182690
H -2.581557 7.666970 7.351308
O -2.668022 7.747823 6.376676
O -2.781476 7.801180 9.119801
H -2.129411 10.742883 5.219182
H -0.931091 7.647259 9.587773
H 2.070960 8.005634 4.647040
O 1.721771 7.504700 5.425627
H 2.080614 8.007518 6.205666
O 3.728675 9.682509 8.515344
H 3.256695 10.536420 8.345226
H 2.961960 8.174935 9.044207
O 2.460016 7.342681 9.337537
H 4.701963 9.923937 8.695461
O 6.815971 10.645709 8.983315
H 7.243668 9.908808 9.498726
H 7.468198 10.776216 8.227728
O 9.009305 6.963779 8.605581
H 9.227369 8.077259 5.539018
H 9.319282 9.360856 6.493699
O 9.694152 8.442163 6.366319
H 9.177602 7.407777 7.731423
H 11.389642 8.397154 5.832337
H -1.066160 11.760445 7.385356
H -0.950553 12.118757 8.931946
O -0.780906 12.454785 8.047432
H -0.468008 14.139318 7.998742
H 2.121599 12.244933 9.500512
H 3.128524 14.048798 4.749009
O 4.237835 13.775293 7.818803
O 4.012093 13.630286 4.949816
H 3.418525 13.195327 7.975766
O 2.152199 12.131689 8.525820
H 1.209209 12.272553 8.204276
H 4.100600 13.601347 5.932097
H 4.952589 13.611956 8.550224
H 10.638227 13.611579 9.402775
O 10.420337 13.090557 7.756006
O 8.718670 10.912497 6.859468
H 9.946279 13.879435 7.366368
H 8.196288 11.150473 6.013168
H 9.380596 11.662392 7.084645
H 11.397436 12.987985 7.417855
H -0.620369 8.498220 11.434181
O -1.092690 9.218423 12.002925
H -1.928980 8.760802 12.265482
H 0.143834 9.620175 13.152258
O -0.156305 7.360885 10.186992
H -2.917026 7.485805 14.134510
O 0.776951 9.767191 13.961952
H 1.624251 10.184573 13.643979
H 3.718687 10.162728 13.131366
H 0.767298 7.447450 9.769497
H 4.337716 7.836899 12.977201
O 4.758890 8.586668 13.518147
H 5.722075 8.641721 13.233686
O 7.461500 8.305065 12.904404
H 7.723846 8.421008 11.967450
H 9.295380 9.443404 10.895140
H 8.275384 8.679134 13.452315
O 8.515271 8.894322 10.482703
O 10.799595 10.089534 11.859772
H 10.571024 9.678617 12.727084
O 9.674869 9.311265 14.272544
H 8.831945 8.185544 9.861401
H -1.205301 10.789963 10.970913
O -1.083215 11.708782 10.617702
H -2.195575 13.144166 11.317754
H -0.094927 11.903757 10.928234
H -2.956276 14.124503 12.296434
O -2.584318 14.053632 11.388646
O 3.105661 10.951229 13.063450
O 1.765828 12.375000 11.165791
H 1.888254 13.344289 11.415194
H 2.392057 11.826043 11.770844
H 3.552353 11.650905 13.668443
O 3.945987 13.112654 14.491113
O 1.434957 14.565363 14.445042
H 3.146653 13.672407 14.552541
H 5.298881 13.680882 13.270888
O 5.981765 13.944029 12.612919
H 5.829172 13.275426 10.795617
H 7.712472 13.318363 13.324161
H 6.434923 12.226163 9.672474
O 6.141112 13.172854 9.873722
H 7.415775 14.210001 9.770390
H 10.916161 11.090022 12.075544
O 8.557706 13.333366 13.894096
H 9.347572 13.026968 13.381542
H 10.870666 13.388482 11.810606
O 10.931923 12.776124 12.617085
O 10.709529 14.163047 10.270325
H 8.998336 14.609117 10.192885
H -1.128364 7.119458 15.324497
O -0.583881 9.940948 19.399275
O -2.108199 7.292274 15.531876
H -2.037382 8.049011 16.145976
H -1.113768 9.653570 18.551189
O -1.939534 9.531978 17.176679
H -1.403411 10.234541 16.637400
H 0.408529 9.942957 19.283502
H -0.009751 10.808607 15.099023
H -2.963074 9.730468 17.037336
H 0.914255 8.019633 14.684385
O 0.702958 7.141177 15.054500
H 1.129813 7.193154 15.988121
O 2.212808 9.995436 18.814876
O 2.199841 7.619576 17.322511
H 2.165934 8.552268 17.731138
H 3.127658 7.587310 16.920016
H 2.168809 10.859203 18.373929
H 5.313776 7.068674 16.076513
H 4.643478 8.146248 15.112475
O 4.713279 7.903627 16.081453
H 5.864159 9.192183 16.700435
O 6.399358 10.024375 16.985551
H 6.970526 9.690732 17.769530
H 10.979265 7.056872 16.210083
H 11.312336 8.445239 17.027395
H 10.198463 8.709202 14.900335
H 9.217669 9.968506 14.878192
O 8.091904 8.672166 18.851185
H 9.092328 9.011960 18.821602
O 10.998722 8.943223 18.619224
O 11.237800 8.008585 16.090441
H 11.146638 8.303559 19.341894
H -1.151775 11.612801 19.466060
H -1.011728 14.106739 16.407938
O -0.116572 14.267753 18.095777
H -2.026794 14.108684 15.067297
H -0.712791 13.712833 18.684163
H -0.707340 12.238341 15.622648
O -1.091009 13.946854 15.409853
O -0.410937 11.329629 15.900979
H 0.505743 14.283698 14.749265
H 4.196151 12.802489 15.366223
H 3.785024 12.242045 17.288821
O 1.934984 12.325785 17.367868
H 1.456498 13.164317 17.598520
H 1.239012 11.834204 16.792576
O 4.727251 12.252214 16.917516
H 7.594925 10.919151 16.042644
H 5.150503 11.340865 17.028943
O 6.725443 14.091673 18.073277
H 5.958209 13.516791 17.708936
H 7.593943 13.545730 18.067741
O 8.465215 11.372441 15.765921
H 10.127046 12.800229 18.366012
O 9.296130 13.016296 17.850720
H 9.150351 12.331560 17.122990
H 8.227984 12.069229 15.163070
H -1.960208 9.127401 21.977580
O -1.130090 8.627283 21.704429
H -0.954958 9.002607 20.793129
H 1.046063 7.985296 21.805797
H 3.170382 8.945671 21.468895
O 1.919378 7.595848 21.554133
H 3.922894 10.447846 23.127687
O 3.690512 9.815778 21.305980
H 2.736732 10.087211 19.633082
O 3.981725 10.762657 24.079046
H 2.359148 7.191899 22.332041
H 4.647058 9.538255 21.184613
H 6.902111 8.025408 21.844546
O 7.232410 8.817613 21.415444
H 8.046524 9.206684 21.886748
H 10.550355 10.107487 22.919177
O 9.561594 10.229456 23.163937
H 7.742206 8.712404 19.786949
O -2.254834 13.014350 22.201447
H -1.731332 12.682591 20.485454
H -1.511207 12.982084 22.851381
H -2.772644 13.873095 22.383171
O -0.418639 13.163940 24.336722
O -1.623530 12.502179 19.534690
H 4.945949 14.355260 22.760370
O 5.899493 13.192314 24.035177
H 5.401879 12.321516 23.992261
H 8.162917 12.927722 24.085415
O 9.147406 12.946617 23.850239
H 9.448781 11.239862 23.208401
H 9.178929 14.663102 23.093283
O -1.582313 9.723689 28.338286
H -0.232676 9.158725 27.472581
H -2.284752 10.241572 27.846268
H -2.130814 9.043410 28.835543
H 0.430561 8.042106 26.432711
O 0.614157 8.906249 26.940384
O 1.989497 7.768601 28.985898
H 1.448011 8.221262 28.247989
H 3.627120 7.688815 28.379119
H 1.279374 10.326065 25.934800
H 4.189281 7.733699 24.819871
O 7.332464 7.278401 25.334152
H 4.421835 10.025191 24.542434
H 4.582857 7.907959 27.120442
O 4.593711 7.857112 28.100074
H 4.779097 9.702157 28.375429
O 4.726096 8.293954 25.435222
H 5.661049 7.939848 25.367068
H 6.022814 7.670988 29.030719
O 5.052874 10.647530 28.516737
H 6.822668 10.791093 27.925195
H 8.357078 10.716141 28.606617
H 8.034804 8.088056 25.491650
H 9.204794 9.721491 24.832847
H 10.867549 8.636887 26.144619
O 9.052895 9.398018 25.723790
H 8.734200 10.098762 26.299796
H -2.206181 14.575533 29.354525
H -0.750832 14.164804 28.827745
H -2.048664 13.607938 26.900147
H -1.139478 13.180889 25.002548
O -2.525761 13.329600 26.057656
H 0.251509 12.489185 24.581838
O -1.662373 14.453312 28.524713
O 1.015695 13.471719 29.261491
H 2.415185 10.906785 24.956299
O 1.682684 11.193410 25.593911
H 1.656888 13.223136 28.560189
O 3.175058 12.403499 27.602282
H 3.802171 13.080765 27.205798
H 2.621667 12.017817 26.834493
O 7.825574 11.010738 27.799066
H 6.085513 14.153756 27.042586
O 5.141785 14.221928 26.695447
H 4.324553 11.245073 28.190490
H 5.688127 13.630976 24.907728
H 7.898435 12.875746 27.800494
H 7.809235 14.179305 28.657449
O 7.866219 13.869768 27.744721
O 11.294958 13.043854 26.045692
H 9.757198 12.924458 24.657492
H 11.012232 13.783454 26.689494
H -0.881958 8.461686 33.682098
O -1.824607 8.730043 33.902869
H -2.425884 8.214859 33.267221
H -1.557152 10.586325 33.306745
H -0.721433 10.650103 29.845710
O 0.763626 7.747132 33.042521
H 2.122702 8.807694 30.409990
H 1.349562 8.228921 32.426278
O 2.058363 9.402287 31.226410
H 2.908036 10.025379 31.292421
H 1.217725 7.902434 33.910191
H 0.615329 10.536357 30.747725
O 6.680121 8.173931 33.820192
H 6.918969 8.878629 33.167461
O 7.245516 10.321859 32.364910
H 5.884135 8.565325 34.276377
H 5.273477 10.731207 31.750333
H 6.805405 7.016509 30.267313
O 7.002165 7.534769 29.450477
H 7.940408 10.263229 31.644858
O 8.680565 9.942141 30.084696
H 9.706161 9.923686 30.015232
O 11.376190 9.704040 29.825175
H 8.290799 9.087728 29.713093
O -0.124378 11.138608 30.555584
H -0.732674 11.196988 32.201400
H -1.520895 13.102547 33.201925
O -0.989807 11.381041 33.116687
O -1.861731 14.038566 33.299126
H -2.177666 14.341324 32.421992
H 0.672624 12.590816 29.715414
H 1.992667 14.661533 30.286361
H 4.195458 13.322883 34.270068
H 3.552353 14.637302 30.849509
O 4.654621 14.100398 33.933167
O 4.547523 11.036789 31.149982
H 4.851727 10.815638 30.249516
H 7.637302 11.007537 33.035319
H 4.945603 12.840530 30.939865
H 5.030415 13.631792 32.271042
O 5.070021 13.757654 31.302183
H 6.692246 14.465114 30.622071
H 9.095041 12.540346 33.980250
O 8.231621 12.152153 34.306615
H -2.639003 9.179943 39.285848
O -1.778379 9.185404 38.755437
H -2.141437 8.146561 37.284917
H -2.286385 8.112350 35.648744
H -1.131828 10.891405 38.186693
O -2.629341 7.722588 36.482604
O 1.841396 8.456287 35.508447
H 1.441891 9.331604 35.742314
H 1.497102 7.781407 36.137965
H 3.595885 8.965884 35.356782
H 5.671037 7.196544 37.598961
O 4.515481 9.420617 35.272557
H 5.013152 9.365062 36.132072
H 6.285737 9.461608 38.467582
O 6.389890 9.129159 37.511402
H 7.186569 9.664744 37.148608
H 8.421164 8.016996 34.692861
H 10.966044 8.076004 34.721849
O 8.771555 10.387583 36.440283
H 9.237761 8.803740 35.793623
O 9.304906 7.981341 35.211010
H 9.545486 10.862153 36.947539
H 10.468661 6.964218 38.691925
H -2.723761 14.424248 34.840300
H -2.569517 12.174124 37.410153
H 0.120382 11.259259 34.553815
H 0.028971 11.415817 36.138322
H -0.509403 12.374811 38.298537
O -0.880377 11.685054 37.644139
O 0.607523 11.093286 35.376127
H 2.279371 11.738537 35.172023
H 3.114437 13.011839 36.807779
O 3.030837 13.605365 37.599437
H 2.795685 13.004306 38.337643
H 3.794146 11.255744 35.333568
O 3.229675 12.100490 35.283986
H 6.144172 14.456765 34.816014
H 7.734700 12.872984 34.805895
H 6.005378 14.668124 37.074978
H 4.572465 14.360533 37.766340
O 6.877227 14.307489 35.509817
H 11.035730 10.984938 38.745675
H 8.639112 10.904588 35.650648
O 11.386409 11.323540 37.928005
O -0.509646 9.460792 43.413958
H -0.131617 8.485791 41.727071
H -2.025443 10.199325 42.876583
H -0.598736 8.882270 44.183890
O 0.180986 8.440468 40.797438
H 0.196367 7.477896 40.486430
H 0.423321 9.896944 43.612349
O -2.867593 10.606162 42.504146
H -2.899089 7.128434 41.356182
H -1.068955 8.977560 39.445608
H 1.833389 9.373537 40.941782
O 2.693725 9.901150 41.202256
H 3.518579 9.319363 41.233029
H 2.200320 10.324684 42.742596
O 2.095815 10.470821 43.701991
H 2.787891 9.834296 44.044070
O 6.722498 10.547594 40.000007
O 5.136820 8.565074 41.255350
H 5.265279 7.634328 40.830831
H 5.518041 8.464950 42.144805
H 6.160511 9.896065 40.532263
O 6.298612 7.744307 43.838120
H 7.015674 8.344801 44.190140
H 5.392757 8.044868 44.178057
H 7.693997 10.266242 40.123755
O 9.492774 9.933416 40.057565
H 9.664650 10.258395 40.981127
H 9.399764 9.396637 44.030023
H 9.739763 8.942846 40.036197
O 10.083918 10.575591 42.745572
H 11.069677 10.639181 42.409028
O 10.698560 7.460005 39.541083
H -2.938747 13.642903 40.749760
H -0.833646 13.403045 40.287980
O -2.296420 13.189928 41.355885
H -1.869698 13.827333 42.049211