18432
Timestep: 14000000
H 0.094032 2.759949 4.842817
H -2.463900 2.119113 4.141841
H -2.054592 0.563672 0.362692
O 1.948626 3.007004 4.680847
H 2.504028 2.626150 3.921015
H 3.307892 0.707024 3.070779
O 3.350982 1.696627 2.820056
H 2.944883 1.658871 1.907927
O 2.234278 1.701911 0.320999
H 1.484436 2.348627 0.182934
H 5.198599 2.400488 2.515713
H 6.496365 2.627614 3.421203
O 5.973987 3.050795 2.659779
O 7.514561 2.023660 4.532592
H 8.058427 1.355470 4.038644
H 9.400195 0.098783 2.736274
O 10.003281 0.037816 1.184997
O 9.113329 0.011016 3.658017
H 9.386288 0.675328 0.677974
O -0.162871 5.696211 0.751414
H -0.168764 5.758295 1.732982
H -0.628503 6.702165 4.152306
O -0.964837 6.753027 3.189054
H -0.139736 4.738819 0.420860
H 2.286624 3.953361 4.949064
H 5.286260 4.535680 3.610009
O 5.300053 5.279524 4.274806
H 5.498403 6.138646 3.820951
H 6.899562 3.702454 1.275442
O 7.341461 3.812354 0.391844
H 7.653577 4.782828 0.357154
H 7.288396 6.981350 0.061068
O 10.250420 6.467763 4.943928
H 9.290418 6.253025 4.764453
H 11.508574 6.949157 3.698639
H 0.023669 -0.321700 6.239769
H -0.440162 -0.213998 8.934625
O -0.850290 2.550079 5.095397
H -0.653445 0.658066 5.169654
H -0.995838 3.172840 5.841931
O -1.210603 -0.432814 9.499205
O -0.355208 -0.288976 5.310899
H -1.725377 0.392806 9.710805
H 1.532729 0.508673 7.525469
O 0.900233 -0.231042 7.797769
H 2.539560 2.046752 6.023821
O 2.886376 1.484140 6.770620
H 3.245594 0.701652 6.288483
H 4.341078 1.910230 7.704926
H 4.623669 0.188835 9.138469
O 5.104895 1.673838 8.328384
H 5.921834 1.570562 7.785546
H 5.687178 3.300821 9.011955
H 7.370415 -0.002213 6.962711
H 7.411795 1.572944 5.449758
O 7.502819 0.989267 6.951135
H 8.490408 1.194981 7.207804
H 10.541105 -0.022280 6.549148
H 10.937691 1.573229 8.391376
H 10.720988 2.318488 7.023411
O 10.390747 1.527584 7.538631
H 9.993192 -0.313873 5.094051
H -2.240574 4.112244 8.184125
H -0.006203 4.280270 7.964005
O -0.185807 6.776597 5.889828
O -0.727188 4.424887 7.280610
H -0.476720 5.280808 6.886086
O 1.286890 3.671062 9.465770
H 2.089500 4.157152 9.077827
H 4.004396 5.354280 5.222239
H 3.208603 6.741862 9.204105
H 2.895621 6.315610 5.845110
O 3.427586 5.108428 8.468354
H 3.295295 5.021435 7.477696
O 3.172524 5.368217 5.839334
H 4.374193 4.837933 8.716268
H 7.976294 3.775547 4.989433
H 6.897282 4.947895 4.994686
O 5.883817 4.267207 9.224319
H 6.764992 4.480550 8.744709
O 7.876948 4.739601 5.278404
H 10.561567 5.651465 5.423145
H 11.537300 4.416649 7.186415
O 11.219028 3.873079 6.354530
H 10.979698 6.260344 8.510956
H 8.950203 6.489349 8.160562
H 8.201831 4.754618 6.846657
H 9.036440 4.210415 8.033755
O 8.249880 4.757601 7.842721
O 9.625048 7.228963 8.410063
H -0.498589 2.644045 13.155456
H 0.072789 1.264873 13.746184
O 0.344574 2.178095 13.503265
H -2.363983 2.304333 11.030057
H 1.334374 1.928013 12.017659
H 1.327682 -0.071566 11.159802
H 1.683259 2.325038 10.522006
O 1.910175 1.660570 11.240540
H 3.540041 1.134113 11.758463
H 4.323181 -0.348445 13.453964
O 4.355213 0.575259 12.035758
H 5.824199 1.632863 12.585941
H 4.640654 0.088851 11.215860
O 6.641537 2.269567 12.689831
H 6.855675 2.315083 13.621669
H 8.345350 1.635306 12.008610
O 9.266195 1.248157 11.991981
H 10.527654 2.190215 12.612442
H 9.212105 0.385673 12.477115
O 11.145730 2.923304 13.069841
O -1.706300 3.484999 12.160038
H -0.952639 4.091918 11.859062
H 0.301148 6.097522 11.115731
O 0.303445 5.180206 11.550095
H -2.396248 4.066921 12.609563
H 1.003403 5.312734 12.303945
H 1.799960 6.546848 14.153048
O 2.191895 5.829316 13.607919
H 2.969192 6.242728 13.153635
O 4.204627 6.858163 12.033525
H 3.791569 7.147707 11.157921
H 1.048123 4.261662 10.225319
H 4.757327 6.006962 11.924346
H 6.102914 3.818222 12.198644
H 6.011206 4.654655 10.924521
O 6.069628 4.760982 11.890206
H 7.097570 5.548872 13.137005
O 7.594756 5.974708 13.894792
H 7.780566 6.953996 13.558618
H 10.519788 3.501814 13.642353
H 8.730593 4.891072 14.448266
H 11.419487 3.943784 11.702169
O -2.054627 -0.291342 18.752361
H -0.729325 0.785191 18.302543
O 0.173326 1.297946 18.356544
H 0.179271 1.987913 17.635542
H 0.439525 2.600836 15.482349
O 0.538860 2.838680 16.412776
H -2.459663 0.093551 19.576901
H -0.264827 2.237455 19.623616
H 1.602357 0.466724 18.057214
H 3.173151 0.554114 18.016375
O 2.440174 -0.115116 17.879931
H 4.344042 2.705960 19.152703
O 7.178791 0.802676 19.498807
O 4.684086 2.007092 18.543229
H 5.578997 1.688743 18.872881
H 5.230061 3.066904 17.318466
H 6.713866 2.701383 15.820050
H 7.125214 0.401880 15.442861
O 7.432485 2.228554 15.233964
H 7.324133 -0.051705 18.983822
H 8.299125 2.842296 15.270749
H 0.549843 5.670855 19.597232
O -2.357563 5.853010 17.471304
H -1.652866 5.750789 18.208289
H -2.045917 6.624506 16.946976
H 1.400530 3.434074 16.405255
H 2.609706 4.968259 15.185839
O 2.650955 4.588261 16.078659
H 3.604903 4.258213 16.161160
H 2.527038 6.984203 18.916717
H 6.706114 5.945121 15.453849
O 5.417980 3.501089 16.469187
H 5.795301 4.422226 16.561266
O 6.471229 5.967637 16.396441
H 7.392473 6.105710 16.845554
O 9.358530 4.185660 14.847255
O 8.740682 6.397921 17.986348
H 9.942237 4.763122 15.474651
H 8.634325 5.929304 18.811123
O 11.052198 5.727901 16.581657
H 10.385047 5.820260 17.320229
H -1.331545 2.330329 20.785153
H -1.523323 1.768312 23.912845
O -0.432638 2.652784 20.525016
O -1.956449 0.063442 23.354788
O -1.613179 2.765159 24.161347
H -2.557087 -0.387301 23.977307
H 1.068750 3.185152 21.616274
H 2.461440 -0.035409 23.060335
H 2.483971 2.177537 23.181795
O 2.785935 1.471070 23.802903
H 4.542733 1.307083 23.770702
H 5.979744 2.142343 23.672335
O 5.535280 1.209197 23.624033
H 6.347375 0.441671 22.470429
H 6.959466 0.150049 21.047229
O 6.995488 -0.163576 21.983533
O 9.552890 2.047807 20.526955
O 9.355851 1.002448 23.073615
H 9.512821 1.778844 21.474776
H 8.490180 0.520818 22.766469
H 9.500282 2.160771 24.313951
H 10.017758 0.268298 23.282571
H 10.506850 1.710614 20.329047
H 8.079516 1.295576 19.707116
O -1.308552 6.469438 21.921010
O 0.034476 5.049607 23.705711
H -0.494144 5.572306 23.036713
H -0.961007 6.138336 21.055514
H -0.496788 4.185815 23.841215
H -0.432359 4.390350 19.846381
O -0.418600 5.381354 19.704707
O 1.892102 3.418890 22.200832
H 1.482999 4.130009 22.776106
H 3.114729 3.775665 20.942398
O 3.856717 4.063491 20.336039
H 3.725452 6.169102 24.117276
O 4.013231 6.871871 23.485650
H 2.349680 7.059132 20.458204
H 3.434995 4.905481 19.988348
O 2.370489 6.404433 19.687490
H 4.678614 6.401518 22.897684
H 5.260440 4.637808 21.280629
O 6.000376 5.138759 21.835865
H 6.251392 4.629490 22.652120
O 6.758324 3.691649 24.042473
H 6.687989 6.715625 22.332575
H 7.714677 3.563470 24.268234
H 7.630379 4.757713 20.664281
H 8.868697 3.747920 20.327166
O 8.524663 4.690779 20.217753
H 10.292199 5.786703 22.674155
H 9.422310 5.591069 21.277221
O 9.834399 6.280131 21.934937
O 11.114724 5.202759 24.204419
H 10.563904 4.388036 24.429887
H 8.228506 7.163462 22.644246
H -2.400065 0.180772 28.013039
O -2.423035 1.150085 28.083553
H -1.419001 2.857102 25.160350
H -1.388935 2.238144 27.238858
O -0.792922 2.868714 26.716821
H -2.255517 1.418484 29.039953
H 1.042207 2.765885 26.384056
O 2.017011 2.591880 26.192258
H 2.417837 1.740517 24.681738
H 2.728938 1.998563 27.601944
O 3.381646 1.657326 28.306611
H 3.187571 0.664237 28.313897
O 6.703720 0.099244 25.764358
H 6.362821 0.391267 24.890987
H 5.016037 1.905702 27.752080
H 6.171026 1.458380 26.751608
O 5.861247 2.221787 27.330937
H 7.380789 2.008655 28.283224
O 8.194137 1.948873 28.915966
H 7.556340 -0.394360 25.645778
H 9.798604 0.498476 29.219528
O 11.196629 1.885401 26.945168
O 9.413019 2.956464 24.916725
H 8.710416 2.817126 28.913910
O 10.770461 0.316394 29.058933
H 9.943548 2.738264 25.737915
H 10.944474 0.754152 28.207598
H -0.745506 3.765555 27.218291
H -0.168422 4.995824 29.018505
H -1.404358 5.573118 28.209184
O -0.447617 5.243468 28.107821
H 0.383731 6.050816 26.786747
H 0.546549 5.930731 25.205361
O 0.909136 6.411380 26.049997
H 2.399689 3.472841 25.955156
H 2.508325 5.612245 26.057754
O 3.277113 5.198225 25.539889
H 4.154583 5.161126 26.046824
O 5.960023 4.770559 26.344274
H 6.358945 4.164366 24.817653
H 5.883703 3.855842 26.823415
H 6.762484 5.270592 26.788452
H 7.992367 6.628848 27.967499
H 9.420999 6.925711 26.341689
O 8.392886 5.982523 27.282517
O 9.701652 4.346577 28.970732
H 10.829168 5.941213 24.814598
H 9.029600 5.409695 27.810018
H 10.700412 4.203102 28.852974
H -1.179266 2.693071 30.789985
O -2.025558 2.103265 30.680454
H -2.134645 0.269458 33.366202
H -2.034472 1.421405 31.364025
H 1.437835 1.777033 33.617583
O 2.215965 1.668832 33.001528
H 2.394901 0.689985 32.880186
H 2.498425 2.452417 31.329356
H 2.939480 2.587352 29.806848
H 3.247418 2.833935 34.017219
O 2.698616 3.103878 30.613289
H 5.554944 0.382577 31.006403
O 5.059412 -0.484929 30.807261
O 6.740483 1.845939 31.211892
H 7.228720 1.938018 30.358382
H 7.561241 1.817574 31.817075
H 10.341331 2.343448 31.891643
O 9.448585 2.530603 32.253613
H 9.606182 2.389435 33.208134
H -0.479205 5.608846 33.612882
H 0.081909 4.765460 31.392818
O -0.388397 5.938856 32.691797
O 0.052162 4.156966 30.616345
H 0.306979 6.727038 32.768481
H -1.928418 6.851154 32.091256
H 0.936021 3.696946 30.522562
H 4.304144 3.796004 31.464683
H 6.665532 7.020737 32.395581
H 5.852811 3.331562 31.675225
H 4.492861 3.687400 33.575040
O 5.182411 4.020177 31.973615
H 6.113801 5.589059 31.824714
O 6.767329 6.313873 31.671112
H 6.950803 7.211161 30.104592
H 8.376242 5.457623 31.561346
H 9.233649 4.129010 31.848512
O 9.284263 5.042325 31.439944
H 9.568507 4.643657 29.930129
H 11.073800 5.296718 31.795216
H -0.788927 1.186315 34.840760
O -1.314286 0.347656 34.972797
O 0.504679 2.395538 34.974383
H 0.834948 1.211393 37.997011
H 0.105768 3.323815 35.102483
H -2.305680 2.043632 38.730235
H -2.074490 0.689048 36.511346
O -2.600574 1.008867 37.300453
H -0.584803 -0.352636 35.145320
H 0.881122 2.004958 35.810617
O 1.323140 0.873667 37.226414
H 2.315037 0.865287 37.585446
O 3.860592 0.815659 38.317672
H 4.495597 0.038261 38.444655
H 3.980571 1.385553 39.113536
H 4.527344 1.468378 36.751857
H 4.680381 2.277699 35.372022
O 5.113331 1.600497 35.966334
H 6.867074 2.084422 36.287172
H 5.518865 -0.124583 35.332417
O 7.823086 2.371465 36.551715
H 8.129160 1.635102 37.161659
H 7.550469 -0.350831 37.941951
H 9.200762 -0.066124 37.828013
O 8.337028 0.301898 38.152376
H 10.077605 0.292601 34.590613
H 10.656923 2.770828 35.221122
O 9.951642 2.102955 34.875547
H 9.094463 2.320690 35.342465
O 0.486662 6.507585 39.167890
H -2.489995 4.336554 39.182110
O -0.501263 5.032420 35.226881
H 0.174825 5.624954 35.689745
H -1.458329 5.209253 35.540197
O 3.978576 3.471880 34.376721
O 1.383215 6.736900 36.643207
H 1.014312 6.720897 37.563293
H 2.263238 6.252094 36.663009
O 2.246646 4.455460 39.068407
H 4.461227 5.725482 36.902580
H 2.724179 4.435183 38.213664
O 3.643490 5.155259 36.663773
H 3.794704 4.743571 35.764607
O 7.901457 5.084839 37.423499
H 6.665190 6.265120 37.455231
O 5.868428 6.880369 37.632044
H 7.823086 4.140125 37.036438
O 10.346175 6.393579 36.883423
H 10.006587 6.935822 36.145145
H 8.744330 5.515904 37.156253
H 8.271140 4.980801 39.045784
H 10.768011 5.611978 36.467980
O -1.108019 2.005914 43.616597
H -1.981294 1.961700 43.049844
H 0.618536 1.431602 42.747928
O 0.645370 2.234038 39.696449
H -1.045174 2.455854 39.647794
O -2.067605 2.595750 39.526805
H 1.009827 1.943074 40.563356
O 1.304131 1.157324 42.130581
H 2.163277 1.060636 42.596852
H 4.231415 1.533811 41.338477
O 4.306309 2.186258 40.602079
H 3.982281 3.074440 40.888189
H 1.133106 3.032019 39.405169
H 5.126611 -0.271789 42.024164
O 4.528655 0.305949 42.538032
H 5.134306 0.818772 43.223836
H 6.106562 2.674010 40.817499
O 7.085202 2.843028 41.023575
H 7.575662 1.962953 40.895592
H 7.405354 3.230290 42.654438
H 7.544541 -0.234298 41.049195
O 8.321582 0.421711 40.825549
H 8.401891 0.347005 39.835890
H 10.062615 -0.090901 41.198566
O 11.065478 -0.304842 41.286297
H 11.465997 0.216698 40.576636
O -0.308054 6.451512 43.047963
H -1.122086 6.605030 42.482033
H -0.600591 5.665520 43.569001
H -0.486443 6.280937 39.367503
H 1.759429 6.696520 43.053957
H 3.371386 5.493215 41.969163
O 2.650146 6.467205 43.447482
O 3.806673 4.907590 41.276308
H 2.936476 4.640953 39.797988
H 2.464700 5.716054 44.033451
H 1.071794 5.710285 39.310386
H 4.671034 5.373824 41.078693
O 5.944006 6.370691 40.261792
H 6.896883 5.964536 40.390832
O 7.779084 3.407353 43.581399
H 7.993393 4.165340 40.360923
H 5.799519 6.474214 39.303394
H 7.465714 4.290734 43.871739
H 11.339121 3.764829 43.404116
H 11.237666 7.063660 39.753565
O 8.388611 5.041383 40.017051
H 11.040286 5.244026 41.676414
H 9.683356 3.896699 43.250573
H 10.151587 5.263050 40.369561
O 10.574107 4.408425 43.181058
O 11.063882 5.525779 40.750158
H 10.173474 6.049885 44.043793
H -1.242464 1.434629 44.421276
H -0.011834 0.538427 45.812687
H -0.941286 1.595931 46.602616
O -0.977194 0.767339 45.987502
O -0.716107 3.050373 47.596330
H -1.200577 3.464300 48.361815
H 0.723912 2.342344 48.475459
H 2.083116 -0.396993 45.168662
O 1.621069 0.217045 45.790651
H 1.104801 0.036310 48.497084
H 2.925584 2.670667 48.571593
O 3.740898 3.187063 48.326029
H 3.045021 1.553728 45.734005
O 3.682419 2.370051 45.687819
H 3.917988 2.787886 47.438203
H 1.528329 -0.255730 46.662083
O 1.367592 1.796608 48.976341
H 4.550143 2.033516 45.263562
O 5.989547 1.445317 44.575818
H 6.484510 0.665013 44.960999
H 6.704062 2.133944 44.425977
O 8.730764 -0.131779 47.867749
H 8.241444 0.519230 48.440849
H 10.458687 0.766520 47.723784
O 11.411109 1.165226 47.673249
H -0.890758 3.696915 46.882262
H -1.221540 3.558129 44.425272
O -1.049443 4.423752 44.988911
H -2.005797 4.756001 45.184351
H -0.295315 7.012549 48.673838
H 1.084157 4.337825 44.996021
H 1.884578 6.692488 47.478337
H 2.900596 5.220983 46.383319
O 2.084062 4.423355 45.009948
H 2.600142 3.519833 45.178828
H 3.389854 4.907093 47.814394
O 3.306125 5.672660 47.213030
O 7.139748 6.031959 44.776724
O 6.045005 6.473594 47.192698
H 6.639086 6.206566 45.610313
H 5.108315 6.055592 47.074588
H 6.799190 6.704149 44.149681
H 6.500469 6.172575 48.004311
O 9.881820 6.794958 44.604964
H 10.477611 4.305106 48.947607
H 8.883858 6.546538 44.695692
H 11.077619 6.323116 45.899536
H -2.109025 1.869956 52.527292
H -1.712775 -0.417122 51.556730
H 1.381339 0.607476 52.544568
H 1.340854 1.952185 49.944553
O 1.078326 -0.147320 53.109265
H 2.039963 2.753889 52.238950
O 1.962339 1.950517 51.615139
H 2.883520 1.557754 51.543568
H 4.131271 -0.317038 52.271093
O 4.467782 0.320656 51.599215
H 5.976324 2.842625 51.774383
H 5.479138 1.549907 52.394433
O 6.168290 2.331272 52.603447
H 7.521058 1.013346 52.301355
H 7.167221 2.341556 49.656916
H 4.872005 -0.298159 50.965180
O 8.082594 0.326499 51.841782
O 8.066064 1.881282 49.577647
H 8.068401 1.302244 50.343895
H 9.098281 0.592453 52.051090
O 10.781576 0.425432 52.239009
H 10.986366 1.102454 52.987277
H 11.425928 0.622270 51.528231
O -1.120809 3.564363 52.325153
H -0.158722 3.851990 52.549563
H -1.304038 3.784175 51.395313
O -1.818009 4.345306 49.697226
H -1.932670 4.684533 53.293012
H -1.638246 5.298151 49.520061
O -2.330315 5.422044 53.886091
O -1.196222 6.980915 49.150040
H 1.313507 7.011061 53.759460
O 1.496394 4.160619 53.223086
H 1.889463 5.085056 53.127775
O 2.215537 6.824048 53.400545
H 5.061008 3.312178 49.482512
O 5.790399 3.515138 50.151628
H 6.229847 4.369521 49.906417
O 7.298998 5.774484 49.419696
H 7.621373 6.376211 50.187943
H 7.471357 6.617435 53.227434
H 9.247329 3.504606 49.662087
H 9.367992 6.821815 51.764158
H 8.169058 5.234195 49.232952
O 10.893860 5.891343 51.807407
H 10.623694 5.273675 51.059785
O 9.720461 4.401626 49.629181
O 8.390720 7.157135 51.714035
H 11.531942 4.848540 53.207867
O -2.550411 1.436242 56.010609
H 0.398322 0.043212 56.981112
O -2.281505 1.428898 58.671325
H -0.951990 0.666408 55.499326
O 0.036915 0.600492 55.428812
H 0.279939 0.192544 54.580709
O -0.018435 3.310417 58.259642
H -0.813880 2.670791 58.312586
H 0.323149 3.293607 57.316581
H 0.633811 2.244427 55.474881
O 0.572978 -0.404360 57.833035
H 1.101239 0.257506 58.374286
O 1.120019 3.098581 55.777150
H 2.070981 2.787446 55.962013
O 3.471872 1.995419 56.578538
H 3.870909 1.121832 56.288139
H 2.853904 1.824694 58.344259
H 4.223664 2.672670 56.729731
H 6.513008 3.357905 53.999324
H 7.996300 2.410375 58.601281
H 6.897168 0.123049 58.253825
H 7.926137 2.408192 55.372108
H 7.863497 0.724460 55.250236
H 5.683986 -0.482811 57.383216
O 8.216480 1.438760 58.352603
H 8.393684 1.362423 57.392265
O 8.419389 1.521486 55.558675
O 10.812297 2.033801 54.409537
H 9.897551 1.854058 54.824334
H 11.502361 1.601049 54.999854
H -2.632492 4.928239 54.688007
O -2.657131 5.806366 58.066964
H -1.826182 5.764932 58.664215
H -1.102559 6.614272 54.043630
H 1.405512 4.022323 54.209690
H 4.235462 6.616195 56.337146
H 3.142828 6.467081 57.459547
O 4.085218 6.299421 57.263578
H 1.093259 6.573334 58.691597
O 1.638772 7.203408 58.128957
O 8.198355 6.545111 58.615325
H 5.515274 7.101931 54.551152
H 4.938920 7.113654 58.544047
O 7.164485 6.516021 54.157510
O 6.999649 3.746835 54.809232
H 7.155992 5.528688 54.295423
H 6.296590 3.837755 55.487691
H 4.938806 4.860858 57.268984
H 6.096531 3.828171 57.810764
O 5.464034 4.004664 57.012432
O 9.235131 7.052433 56.205638
H 10.098979 6.471671 56.097870
H 8.553731 6.832918 55.452023
H 8.421099 6.621839 57.662333
H 11.485718 3.556814 54.064667
H -1.469774 10.430070 3.294290
O -0.627152 9.381870 2.192490
H -1.106628 9.122409 1.332118
H 0.338521 9.459218 1.913650
H -0.682656 7.714451 3.006077
H 2.024335 8.659561 0.618107
O 2.007680 9.435275 1.225660
O 3.429694 9.034579 3.641441
H 2.536522 9.175505 2.052256
H 3.675409 10.035762 3.734078
H 4.313263 8.537802 3.537333
H 2.651764 10.850925 0.395227
O 5.913399 7.613594 3.162758
H 6.777817 8.143556 3.445483
H 5.844318 7.569245 2.166859
O 5.562297 7.550885 0.476849
H 7.602678 9.971253 4.273219
O 8.040872 9.041402 4.193345
H 5.601226 8.506292 0.244122
H 5.919384 10.839946 0.483652
H 8.826405 9.224568 3.610773
H 10.729595 10.487569 3.182208
H 9.984814 9.706087 1.875285
O 10.343781 9.627250 2.796722
O 8.977790 9.298877 0.290881
H 8.801099 8.297136 0.258770
H 11.489936 8.148084 2.821842
O -1.982252 11.135941 3.795489
H -1.043658 12.619759 3.682544
O -0.613273 13.546137 3.596817
H -2.099877 14.398269 3.524023
H 0.010964 13.441869 2.829628
H 1.064464 14.858574 4.217678
H 0.882245 14.219196 0.725166
O 1.245008 13.600101 1.410459
H 1.652429 12.785496 0.956251
H 3.955549 12.360050 4.231781
O 4.092855 11.611690 3.567184
H 2.540130 14.783458 1.762668
H 5.468480 12.972446 0.430329
H 4.510131 11.987886 2.774686
H 5.863412 11.353905 4.467996
O 5.440266 12.439817 1.294099
H 6.231329 12.808694 1.837889
H 6.755759 14.342444 3.087279
O 6.867302 11.409543 4.622180
H 7.126069 12.190592 4.059181
O 7.371327 13.541671 2.951870
H 11.560783 12.731408 3.974800
H 8.272679 13.836921 2.568769
H 9.663122 14.213551 0.792912
H 10.489466 14.191532 2.154889
O 11.246045 11.869476 4.382316
O 9.579622 14.427049 1.712874
H -0.994772 7.354258 6.103090
O -2.194891 8.150875 9.360646
H -2.140788 8.173949 7.773970
O -2.306117 8.246149 6.790364
H -1.969615 10.054370 6.587637
O -1.940946 11.070936 6.616900
H -0.523092 7.805259 9.784668
H 0.662185 7.307489 6.030109
H 2.781894 8.565032 5.244445
O 2.398652 8.236969 6.091808
H 3.426845 8.312084 9.247295
H 2.992060 8.685179 6.823916
O 3.952871 9.584017 8.225258
H 3.432145 10.405135 8.394726
O 2.952783 7.566578 9.722146
H 4.953112 9.806509 8.421521
O 6.707311 10.418595 9.265746
H 7.128406 10.540851 8.372396
H 7.365684 9.908978 9.820982
H 9.403900 8.892722 5.716740
H 9.237012 10.000841 6.801411
O 9.826818 9.218800 6.542567
H 9.642603 7.980176 7.754756
H 9.216037 8.335531 9.837906
H -1.990419 11.282635 5.672199
H -0.793646 11.963758 7.762159
H -0.554657 12.297279 9.295244
O -0.243721 12.535216 8.411590
H 0.019360 14.406704 8.269035
H 3.206152 14.321107 5.217556
H 2.412017 12.046626 9.767157
H 1.496736 11.973496 8.550091
O 2.451796 11.830523 8.798417
H 3.571332 13.275078 8.307759
O 3.983193 13.694320 5.304247
H 4.114742 13.570080 6.273440
O 4.370887 13.834006 8.010133
H 7.615332 13.971397 9.298182
H 5.158302 13.582361 8.585407
H 7.655685 11.508229 6.315101
O 8.125512 11.351610 7.189647
H 6.413605 12.081113 9.730842
O 6.310042 13.069395 9.828563
H 9.567082 14.088566 6.188764
H 9.224530 14.332148 9.252995
O 8.285902 14.640113 9.005668
H 10.853677 13.532615 8.169787
H 10.513519 12.884616 5.793647
O 11.035213 13.590052 9.136412
O 10.047397 13.303920 6.536749
H 8.893890 12.046998 7.212975
H -0.226628 8.867477 11.445617
O -0.617576 9.552197 12.050918
H -1.367436 9.063731 12.501266
H 0.434595 9.898185 13.325805
O 0.302989 7.629783 10.343606
O -2.644812 8.272201 13.449968
H -2.303373 8.249685 14.359242
O 1.109845 10.077072 14.097871
H 1.990598 10.543704 13.782440
H 4.064186 10.461580 13.203641
H 1.244170 7.743914 9.963067
H 4.861062 8.279520 13.000444
O 5.245963 9.071981 13.525888
H 6.281714 8.974040 13.450615
O 8.048794 8.503501 13.007613
H 8.300379 8.536685 12.025005
H 9.732488 9.389127 10.967535
H 8.798021 8.981855 13.521481
O 8.909450 8.966473 10.531878
H 10.940028 9.780395 12.738544
O 10.341843 9.645176 14.340556
O 11.148238 10.053812 11.792603
H 10.904462 11.049165 11.733431
H -0.875802 11.272587 11.324628
O -0.754563 12.237236 11.138354
H -1.964776 13.604691 11.695823
H 0.250552 12.433429 11.502381
O -2.578213 14.386732 11.716449
O 3.465432 11.246225 13.329919
O 1.980498 12.673288 11.450083
H 2.186491 13.664795 11.558380
H 2.572977 12.233577 12.167677
H 3.923973 11.973248 13.900022
O 4.475135 13.576096 14.504441
H 3.597950 14.034168 14.706698
O 1.989926 15.000182 14.631954
H 5.522456 14.015808 13.148522
O 6.292543 14.104755 12.491923
H 6.189607 13.219997 10.784493
H 7.778571 13.321846 13.081241
H 9.293382 14.604882 14.266869
O 8.592318 12.819053 13.417062
H 9.298227 12.792877 12.746066
H 10.895228 13.009973 10.742478
O 10.823811 12.676018 11.625016
H -2.215086 10.630604 17.095819
H -0.378217 7.753280 15.735023
H -1.360744 8.838138 16.383219
H -0.460441 10.257696 18.857838
O -1.277414 10.337773 17.393210
H -0.585835 10.932057 16.892563
O -1.389266 7.985324 15.859068
H 1.046396 10.529003 19.474891
H 1.219764 8.763147 14.811293
O 1.296961 7.840800 15.308062
H 1.726497 8.091081 16.178553
O 2.843685 10.703362 19.212933
O 2.682594 8.354201 17.651878
H 2.776690 9.198083 18.179026
H 3.522543 8.344276 17.097758
H 4.927920 8.559325 15.066788
O 5.077024 8.338384 16.060149
H 6.079830 9.694177 16.733790
O 6.702295 10.430132 17.088062
H 7.341974 10.065721 17.777804
H 5.533798 7.471552 16.072548
H 11.462349 7.465907 16.415186
H 8.555783 7.338999 18.218279
H 9.912143 10.443654 14.760406
O 11.400735 9.302785 18.859836
H 10.788188 9.169922 15.081008
O 8.521813 9.168061 18.777570
H 9.524334 9.356128 18.818056
H 0.611862 11.165218 15.213280
H -0.475084 14.686448 16.781915
O 0.505169 14.710762 18.357250
H -1.427579 14.683718 15.360242
H -0.002743 14.154625 18.988464
H 0.089147 12.637375 15.784323
O -0.537279 14.439517 15.803597
O 0.512499 11.767503 16.019193
H 1.101387 14.751204 14.971066
H 2.867749 11.564116 18.719749
H 2.041707 12.506683 16.939396
H 2.081885 13.613251 18.001626
O 2.674666 12.867124 17.646472
O 7.822345 14.427608 18.027069
H 8.093480 11.195301 16.087943
H 4.888763 13.323893 15.381808
H 4.584512 13.110581 17.443569
O 5.458277 12.906263 17.009205
H 5.744802 11.954516 17.181904
H 7.015095 13.867439 17.653171
O 10.406763 13.281466 17.522191
H 8.621387 12.069824 14.861358
H 8.669264 13.860119 18.009735
O 8.897310 11.692264 15.740781
H 10.910674 12.885174 18.230678
H 10.018442 12.539185 16.954674
H -1.114266 9.585692 22.162579
O -0.348824 9.077564 21.796201
H -0.250464 9.484215 20.931527
H -1.013797 7.455921 21.944574
O 0.065841 10.475660 19.699771
H 1.712122 8.591641 22.076963
H 3.863670 9.484897 21.376821
O 2.542495 8.214515 21.761121
H 3.518496 10.792433 19.948861
H 3.033622 7.744534 22.497225
O 4.466471 10.315629 21.369300
H 5.439297 10.062248 21.292969
H 4.408847 10.845033 23.134433
H 4.914354 10.292493 24.461500
O 7.339409 9.735239 21.192310
H 7.321170 8.877339 21.713994
H 8.006103 10.344472 21.722162
O 7.258815 7.534634 22.652296
O 4.512183 11.084892 24.050758
H 5.330262 8.174756 24.518381
H 10.234176 10.943036 22.755951
H 8.600412 10.409353 24.442579
H 11.164482 7.345946 21.335042
H 8.161819 9.279711 19.679028
H -0.449293 12.224335 19.783682
H -2.520155 13.982437 22.491584
O -1.894493 13.174221 22.354493
H -1.155692 13.246359 20.809774
H -1.237169 13.227130 23.144011
O -0.933152 13.088251 19.843149
H -2.356980 11.399867 22.313654
O 0.102587 13.358877 24.294912
H 0.648026 12.544334 24.446986
H 5.854749 12.775696 23.829345
O 6.251050 13.697236 24.018851
H 5.489854 14.903109 22.874590
O 9.248070 11.206280 22.835396
O 9.361722 13.727257 24.150065
H 9.313844 12.161005 23.188082
H 8.344153 13.643458 24.258480
O -0.865799 10.276428 28.170754
H 0.257505 9.552693 27.208831
H -1.671270 10.682149 27.702720
H -1.400773 9.602687 28.682625
H 0.809693 8.356372 26.250315
O 1.027085 9.224258 26.663877
H 1.514861 10.529313 25.626327
H 2.030411 8.584818 27.808079
O 2.434890 8.131523 28.618986
H 4.137028 8.036559 27.877183
H 1.902304 7.275793 28.596187
O 5.003840 8.521923 27.681918
H 5.103869 8.609567 26.738798
H 4.995347 10.134509 28.030256
O 5.614905 8.866795 25.176274
H 6.603348 9.069562 24.915315
H 6.417025 7.950155 28.775644
O 7.263660 7.560251 29.236216
O 5.153571 11.116960 28.219585
O 9.977176 7.511932 25.735389
H 8.384336 11.033099 28.180685
H 8.292742 10.491353 25.976957
O 8.350879 9.854642 25.200190
H 9.338353 8.227045 25.415374
H 11.521626 8.672649 25.787921
H -2.469431 12.250634 26.360316
H -2.036205 14.625041 26.043005
H 0.098204 14.417001 29.082026
H -1.417348 14.150345 27.353560
H -0.458811 13.453902 25.088014
O -1.606516 13.813537 26.455568
O -0.753150 14.912847 28.865373
O 1.625720 13.621500 29.290277
O 1.745180 11.395897 25.194490
H 2.173838 13.240466 28.539482
H 2.568429 11.144811 24.661994
O 3.157761 12.653192 27.222169
H 2.521617 12.196980 26.509981
H 3.825140 13.295299 26.808607
H 4.396308 11.557975 27.733805
H 7.848108 14.529519 28.482131
O 7.940272 14.270120 27.529844
H 8.027420 13.260191 27.509806
H 6.904008 11.380391 27.749964
H 6.071737 14.431019 26.906444
O 5.226413 14.447022 26.344744
H 5.778886 13.970404 24.839395
O 7.864865 11.540793 27.511510
O 11.208712 13.619577 26.339338
H 9.915220 13.753494 25.004162
H 11.015834 14.381149 26.971493
H -0.580300 8.932358 33.704961
O -1.540992 9.256326 33.977673
H -2.165859 8.775863 33.317782
H -1.289942 11.095375 33.409979
H -2.457585 7.945999 31.081147
O -2.575014 7.625069 32.007580
O -2.623324 8.560814 29.529612
O 1.024355 8.414863 33.028147
H 1.473914 8.800487 32.268539
H 1.671962 8.438000 33.761960
H 1.129942 10.783005 30.728285
H 2.552572 9.140459 30.133620
O 2.382453 9.659690 30.948993
H 3.194126 10.298696 30.991184
H 6.082338 8.936327 34.089026
O 6.719110 8.441721 33.482843
H 7.118944 9.184561 32.975732
O 7.503047 10.717877 31.988952
H 8.196417 10.681529 31.276176
H 9.884328 9.823690 29.557288
O 8.893719 10.069381 29.634736
H 8.434436 9.174822 29.538543
H -0.175177 11.121116 29.902159
H -0.303124 11.506802 32.311787
H -0.965703 13.551347 33.332179
O -0.643647 11.806518 33.199672
O -1.186367 14.515873 33.353744
O 0.406062 11.487636 30.640143
H -1.687104 14.654007 32.487778
H 1.371091 12.857696 29.867078
H 2.564564 14.836182 30.191441
H 5.905818 11.095871 31.187976
H 5.077423 11.302360 29.840577
O 5.022763 11.398503 30.787282
H 5.151576 13.068341 31.242506
H 5.324220 14.281099 32.371841
O 5.369590 14.078890 31.400927
O 4.928603 14.541304 34.188509
H 7.864295 11.400984 32.630039
H 6.652480 14.783769 30.533903
H 9.536760 13.000359 33.984724
O 8.684711 12.535402 34.207959
O -2.582297 8.636611 36.424321
O -1.307292 9.784055 38.666244
H -2.011115 8.851784 37.233230
H -2.067058 8.912757 35.621229
H -0.742856 11.202310 37.939542
H 1.636492 9.835041 35.487135
H 1.729136 8.259547 35.958343
O 2.198655 8.991346 35.426200
H 4.213176 9.256140 35.611651
O 5.089848 9.647347 35.327363
H 5.692592 9.751801 36.146849
O 6.814067 9.518082 37.399466
H 6.749888 10.110753 38.203381
H 6.260910 7.791985 37.447121
H 7.706470 9.879081 37.016107
H 10.894259 8.286777 34.381128
H 8.228620 8.072721 34.503470
O 8.991982 10.675946 36.163890
H 9.196145 9.080107 35.310557
O 9.175227 8.135058 34.918384
H 9.777914 11.007048 36.718598
H 11.120765 11.154115 38.511114
O 11.136383 7.761654 39.075458
H 10.755072 7.296200 38.255208
H -2.044857 14.977542 34.851748
H 0.510042 11.727061 34.582680
H -2.156487 12.700394 37.332596
H -0.143492 12.698471 38.126286
O -0.516640 12.026777 37.450177
H 0.489751 11.752989 36.105423
O 1.128101 11.622359 35.359388
H 3.756516 13.373949 37.016929
H 4.282713 11.449427 35.151549
O 3.735370 14.092970 37.707317
H 2.849071 12.076213 35.325424
H 3.469079 13.616786 38.527332
O 3.853069 12.294301 35.406573
H 6.733758 14.761067 36.964338
H 6.901842 14.053955 39.134631
H 5.363776 14.661203 37.734700
H 4.523639 13.712929 34.551948
H 6.538999 14.836244 34.870846
O 7.496835 14.749529 35.301626
H 8.219102 13.284630 34.680811
O 11.482583 11.586693 37.704144
H 8.733215 11.403589 35.617997
O -0.011299 9.697155 43.309393
H 0.316708 8.889993 41.531978
H -1.473103 10.692631 42.997899
O 0.647000 8.903453 40.619649
H -2.060879 9.784923 39.356749
H -0.549778 9.489301 39.250274
H 0.650392 7.978997 40.232999
H 0.876015 10.221844 43.524695
H 2.189826 9.926160 40.802103
O 3.046959 10.431496 41.102374
H 3.838135 9.845400 41.027982
O 2.476817 10.873999 43.807748
H 2.687678 10.794356 42.854051
O 5.532886 9.027694 40.905699
H 5.656513 8.077869 40.586743
H 5.937851 8.954936 41.814914
O 6.668952 8.520992 43.292646
H 5.881424 8.787090 43.850527
H 6.611100 10.138913 40.228181
H 7.551495 8.980057 43.600908
O 7.148753 10.802296 39.686401
O 10.079372 10.269481 39.665952
H 9.720860 9.882554 43.345943
H 10.233264 10.470698 40.618180
H 8.154125 10.543332 39.692394
H 10.338709 9.314694 39.479443
O 10.532100 10.992223 42.270844
O 9.227950 9.476337 44.105610
H 11.570757 11.052142 42.394478
O -2.335701 11.175762 42.703152