18432
Timestep: 32000000
H -1.270327 3.135574 4.697851
H -1.814221 3.648395 2.580475
H -1.466711 0.861158 0.571968
O -1.771930 3.906544 1.637688
O 2.994423 3.684498 5.076134
H 3.523783 3.407392 4.258530
H 4.279835 1.631679 3.370961
O 4.385276 2.578486 3.147315
H 4.030056 2.636380 2.222783
H 6.052798 3.247173 2.787882
O 7.010386 3.646452 2.715971
O 3.715412 2.876010 0.628986
H 3.280765 3.762768 0.356437
H 6.951341 0.891738 0.331901
H 8.852636 0.542403 3.425434
H 7.862812 0.630953 1.658780
H 7.668104 2.894566 2.723143
O 8.867131 1.484935 3.135983
H 9.697395 1.541215 2.537160
O 10.877953 1.407557 1.330583
H 10.926420 2.025981 0.569239
H 9.105325 2.264087 4.816858
H 10.629070 0.487658 0.977855
H 0.522164 7.282777 4.430664
H 0.320941 6.109845 2.389970
O 0.333612 5.588308 1.570112
H -0.486146 4.911536 1.628185
H 1.555289 5.075500 0.489130
O 0.078399 7.441867 3.564478
H -1.851600 7.709607 3.115602
H 6.890449 5.071615 3.992945
H 6.743873 6.739711 3.914799
O 6.866720 5.937001 4.496381
O 6.290656 7.797558 0.322032
H 8.001273 4.398278 1.367360
O 8.506483 4.644755 0.547122
H 8.624684 5.655040 0.515502
H 1.208962 3.231301 5.311398
O -0.382429 0.674422 9.730153
O 0.248571 3.077898 5.569414
H -0.005008 1.424237 5.595436
H 2.166751 1.417536 7.596590
H 0.171953 3.640394 6.390555
H 0.300620 0.904976 9.053109
O 0.057194 0.408084 5.609763
H -0.965740 1.448079 9.956398
H 0.679038 0.271232 6.394691
O 1.584268 0.637797 7.836819
H 5.373924 0.734823 9.631510
H 3.471532 2.772095 6.294708
O 3.794269 2.209678 7.091779
H 4.321138 1.434762 6.666500
H 4.874591 2.345144 8.341688
O 5.662600 2.294121 8.990182
H 6.487938 2.114151 8.428912
H 6.329945 3.823005 9.506705
H 9.646241 4.081233 8.744419
H 10.761598 1.641403 9.492838
O 11.651914 1.713227 6.751625
O 9.275407 2.765715 5.644786
O 8.041009 1.792918 7.718015
H 10.768930 2.064809 6.341728
H 8.670633 2.429806 6.338174
H 8.680147 1.829932 8.510949
O 9.949804 2.191165 9.606863
H 7.940102 0.821837 7.418822
H 12.028177 2.479517 7.275839
H 1.828976 7.813583 6.314810
O 1.939119 4.198933 9.635705
H -1.295400 4.874358 8.576964
H 0.912306 4.709089 8.340290
O 0.191088 4.927184 7.652991
H 0.468508 5.783999 7.237559
O 0.948903 7.273369 6.315684
H 2.690855 4.604670 9.130369
H 3.354551 4.614886 5.348932
H 5.141048 5.406548 8.936054
H 4.161857 6.829665 5.874748
O 6.662778 4.785417 9.580236
H 3.759346 7.174977 9.392505
O 4.486575 5.879520 5.866696
H 4.256385 5.685371 7.634987
O 4.199019 5.660381 8.613729
H 5.367208 5.823939 5.362392
H 8.611140 5.763593 5.439383
H 11.556939 6.794764 9.375550
O 9.492893 5.477431 5.848010
H 7.585554 4.794534 9.252144
O 9.260072 4.964610 8.487818
O 10.035712 7.624083 9.003758
H 9.395511 5.010013 7.513504
H 11.040144 6.313494 5.447989
H 9.456235 6.817465 8.788409
H 9.565146 4.473969 5.564672
O 11.973218 6.762594 5.395603
H -0.244063 3.323441 13.500391
H 0.563987 2.052621 13.910579
O 0.659740 3.033916 13.827493
H 1.887540 2.787955 12.481970
H 1.764604 0.791423 11.566446
H 2.223865 3.050699 10.997134
O 2.460374 2.461696 11.761868
O 0.746466 0.317610 14.056593
H 3.984499 1.685154 12.262193
O 4.844537 1.168006 12.373480
H 6.110500 2.231717 12.889187
O 6.832972 2.927798 13.115024
H 7.156179 2.843239 14.048261
H 5.086312 0.689493 11.550073
H 8.467922 2.602407 12.579914
O 9.415212 2.257265 12.422073
H 9.465134 1.473560 13.018653
H 10.712124 3.361462 13.060138
H 9.745526 2.245835 10.554958
H 11.323894 0.511822 14.731364
O 12.054481 0.587889 10.027540
H 1.723306 4.873508 10.310360
O -1.335578 4.247012 12.547460
H -0.559328 4.756555 12.175377
H 0.730107 6.544262 11.411693
O 0.913431 5.617577 11.771831
H 1.455534 5.800309 12.639694
H 2.067629 7.260683 14.405661
O 2.493551 6.512942 13.918154
H 4.072367 7.587361 11.379530
H 6.440423 4.517162 12.661194
H 3.257281 6.854187 13.405185
H 5.197854 6.709786 12.223679
H 6.560527 5.253078 11.345212
O 6.354346 5.446955 12.269709
O 4.535938 7.504993 12.262018
H 7.243990 6.336735 13.449117
H 11.871918 5.365977 12.481795
O 11.251250 4.082374 13.556034
H 8.057184 7.618984 13.834194
H 10.631308 4.349325 14.278351
O 7.831471 6.699407 14.185010
H 9.003354 5.639926 14.826279
O -1.626073 0.668539 19.427090
H -0.229411 1.548565 18.602868
O 0.538271 2.180810 18.464079
H 0.347783 2.736574 17.692296
H 0.542345 3.600218 15.528085
H 2.266903 1.888099 18.414903
O 0.480636 3.870374 16.466333
H 5.230986 3.416005 19.657821
O 3.106787 1.323757 18.363630
H 3.961273 1.879261 18.451028
O 5.483731 2.851185 18.874151
H 6.819260 3.477893 15.999627
H 6.379867 2.408416 19.124926
H 5.413940 3.836431 17.539233
H 2.777872 0.386447 16.803515
H 7.645886 1.393062 15.914502
O 7.670679 3.013237 15.727004
O 7.838746 1.472874 19.683108
H 11.241399 1.999012 19.232717
H 8.440275 3.703697 15.753922
H 7.864827 0.617363 19.106572
O 7.476587 0.388012 15.827744
H 8.774731 1.840633 19.644770
H 1.410358 4.342448 16.510440
H -0.517571 5.269698 17.018515
H -0.919204 6.859225 16.932224
H -0.113913 6.196686 18.974834
O -0.972048 6.044267 17.488250
H 3.294370 7.418013 19.028846
O 2.833497 5.204356 16.310357
H 7.124446 7.128422 17.257228
H 2.842228 5.598925 15.409690
O 5.419145 4.226593 16.636701
H 3.734497 4.730934 16.410923
H 5.770839 5.202584 16.694209
H 7.093776 6.645021 15.698279
O 6.537077 6.742745 16.515568
H 9.695548 7.062382 17.854157
H 9.912026 5.644782 16.165859
H 11.053408 4.179959 19.665512
O 11.553469 5.045636 19.476907
O 10.451880 6.547722 17.482599
H 10.749006 5.970294 18.227638
O 9.569399 5.063858 15.434220
H 8.036196 7.688545 19.345052
H -1.182952 3.067361 21.220965
O -1.290833 1.181384 23.795190
H -0.614136 0.475436 23.468437
O 0.435690 3.591514 20.682302
H -0.793173 2.759245 24.399052
H -1.774872 2.053046 22.277317
O -0.639752 3.775988 24.580025
H -1.726379 1.291017 20.217752
H 0.509375 3.090080 19.773128
H 3.337481 3.034645 23.286299
O 3.881913 2.492337 23.943009
H 5.566617 2.374394 24.056102
O 6.572112 2.104828 24.066765
H 7.122767 2.949546 23.974472
H 3.455649 0.865413 23.389895
H 7.258373 1.148928 22.743033
H 7.682936 0.919671 21.222189
O 10.526259 1.340522 22.416630
H 10.724772 2.075577 20.730487
H 9.578634 0.998093 22.424787
H 10.616141 2.744611 23.643059
O 10.670317 3.489183 24.331173
H 11.182858 0.582893 22.543590
O 7.810819 0.575474 22.123963
O 10.541818 2.410971 19.803718
H 1.690420 3.999679 21.766796
O 0.380887 6.098380 19.841648
H 0.409050 4.540573 20.342207
O 0.937374 6.008953 23.799967
H 0.468727 6.606478 23.180140
H -0.261054 6.902078 21.080138
H 0.292953 5.268787 24.053830
O -0.565904 7.273065 21.965481
H 2.081111 4.949017 22.947195
O 2.496383 4.238818 22.383652
H 1.378060 6.384444 19.732343
H 3.108735 7.529758 20.569442
O 4.715254 7.312944 23.842618
H 3.876036 4.440554 21.380904
O 4.518364 4.734255 20.686788
H 5.780633 5.516211 21.679747
O 6.457213 5.969687 22.279357
H 5.410974 6.859286 23.282279
H 6.901755 5.315713 22.877975
H 4.060894 5.439343 20.222005
H 4.401394 6.681440 24.535452
O 3.051487 6.888239 19.819974
H 9.039732 4.052972 24.148103
O 8.032391 4.301003 24.068338
H 7.662899 6.850424 21.537405
H 11.473661 5.036774 24.172982
H 9.292253 7.160288 21.389877
H 11.286005 6.458010 22.547436
H 11.411314 6.148972 20.964598
O 11.093032 6.827602 21.632378
O 11.780413 5.968249 24.017297
O 8.343452 7.455221 21.117428
H -0.193855 3.031610 27.456471
H 2.003256 3.452946 26.515543
O 0.403195 3.713518 27.065102
O -1.337140 1.933895 28.039475
H -0.394193 3.781481 25.558709
H -1.435502 2.214412 28.981860
H -1.470409 0.911180 27.961341
H 3.478584 2.705685 24.824273
O 3.007458 3.352624 26.364752
H 3.760521 2.846335 27.756829
O 4.186427 2.602905 28.620148
H 4.069848 1.593864 28.683249
H 5.770671 2.688143 28.024326
O 6.721151 2.817558 27.623110
H 7.062994 1.086324 25.270586
H 6.865376 2.008196 27.071512
O 7.495392 0.619355 26.027862
H 10.506279 1.600954 29.276974
O 11.456143 1.386282 29.071355
H 8.169956 2.711032 28.749381
H 11.021115 3.057261 25.151375
H 11.569923 1.698344 28.142080
O 11.943779 2.377557 26.552833
H 9.486177 3.498701 29.299348
O 8.935970 2.630656 29.418967
H -0.569380 6.531030 28.339833
H 0.304415 4.533999 27.618566
O 0.462996 6.371880 28.374501
H 1.252538 6.968846 26.779194
H 1.498181 6.812245 25.296864
O 1.817380 7.321867 26.077387
H 0.639856 5.824801 29.196160
H 3.385008 4.256335 26.189665
H 6.713539 4.335953 26.841363
O 4.222245 5.737875 25.943435
H 3.732202 6.438101 26.408043
H 5.217162 5.758458 26.189723
O 6.836274 5.243846 26.405130
H 7.489123 5.779702 26.946532
O 8.861143 6.557980 27.650495
H 11.394748 6.607753 24.683213
H 7.769628 4.593878 24.980424
H 9.471458 5.985196 28.199530
H 10.073602 7.367390 26.583073
H 11.328371 4.740221 28.615254
H 8.360410 7.090425 28.318566
O 10.503649 5.025187 29.084115
O 10.522509 7.768484 25.803074
H 1.694142 2.790583 33.755894
H -0.492185 3.675023 30.682161
O -1.328051 3.095234 30.500140
H -1.270965 0.993341 33.207733
H -1.411498 2.485460 31.259221
O 2.365164 2.702978 33.058923
H 2.545768 1.720553 32.967272
O -1.897283 1.159484 32.481979
H 2.998100 3.427653 31.506791
H 6.094437 1.065826 31.295812
H 3.528344 3.476564 30.028947
H 3.669632 3.533104 34.061321
H 6.325747 3.925360 31.838787
O 7.296934 2.512792 31.624779
O 5.458826 0.285469 31.059837
H 4.685088 0.276263 31.666322
H 7.743603 2.672210 30.747243
H 8.115333 2.491615 32.242975
H 10.590397 2.481284 32.535234
O 9.700193 2.501029 33.059040
H 9.853989 3.289383 33.672866
H 10.148205 0.872794 33.696114
H 11.842256 2.345484 30.587713
O 11.861453 2.857024 31.471599
H 1.643011 4.658776 30.746020
H 0.066238 6.230155 33.401640
H 0.510416 5.569170 31.374529
O 0.025136 6.647085 32.512336
O 0.656192 4.912289 30.640035
H 0.586883 7.532004 32.578467
H -1.579506 7.414189 32.158664
O 3.301170 4.043048 30.834816
H 4.883770 4.543486 31.540235
H 4.940464 4.365240 33.653056
O 5.712410 4.654637 32.112635
H 6.684325 6.292043 32.013933
O 7.307008 7.080227 31.937955
H 7.301971 7.687391 30.333675
H 6.885636 7.829546 32.482504
H 8.995630 6.757434 32.536050
H 9.901393 6.079205 33.672108
O 9.944935 6.704566 32.937032
H 11.284438 6.153615 31.975653
H 10.912540 5.470621 29.887828
O 11.899510 5.747617 31.287946
H 11.994093 4.779098 31.457032
O -0.614668 0.889814 35.016816
H -0.057806 1.700511 35.132298
O 1.050510 3.200812 35.286701
H 1.849925 1.906338 38.022670
H 1.688081 2.884690 35.978195
O 2.210002 1.583885 37.181609
H -1.583962 1.231162 36.461507
H -1.677089 2.438042 38.372379
H 3.204695 1.498034 37.467575
O 5.015906 1.710210 37.980777
H 5.545742 0.898057 38.211392
H 5.860777 2.216810 36.505963
H 5.624375 2.796793 35.058825
O 6.266870 2.224439 35.614153
H 6.006794 0.454159 35.223483
H 5.096890 2.364895 38.729196
O 4.526759 3.954241 34.450942
O 11.240168 0.338873 36.741763
H 7.717691 3.200891 35.948188
O 8.587131 3.569299 36.379294
H 8.836126 2.809194 37.027905
O 9.007719 1.449050 37.949489
H 9.750563 0.963465 37.541281
H 8.189321 0.846367 37.787627
H 10.905376 0.322617 35.797689
H 0.808863 4.133822 35.438832
H 1.514601 7.435858 37.657754
O 1.779782 7.400289 36.715602
O 0.045368 5.924546 35.157702
H 0.644260 6.485021 35.755330
H -0.898536 6.006750 35.487251
H 2.578010 6.763383 36.660600
H 4.221238 5.052726 36.026905
H 3.281409 5.250572 38.454300
H 4.684920 6.214319 37.123169
O 5.823448 7.322656 37.955607
O 3.940398 5.604333 36.799563
H 6.657013 6.753246 37.865004
O 11.960849 6.660075 35.893011
H 8.383133 4.990741 37.411757
H 9.832946 4.250156 35.439648
H 10.602374 7.618013 36.363562
H 11.065105 5.292672 35.206470
O 8.237900 5.928759 37.778480
O 10.400894 4.662479 34.735627
H 8.772436 6.623231 37.294819
O 0.000561 3.301595 42.991311
H 1.240869 2.312421 42.347478
H 1.713411 2.352385 40.313316
O 1.963067 1.803528 41.882695
H -0.900836 3.331210 42.520293
O 1.355998 2.751391 39.494338
H -0.118519 2.952235 43.879975
H 1.857810 3.633147 39.443181
O -1.471497 2.959343 39.178656
H -0.485956 2.779014 39.400181
H 2.750532 1.704626 42.439130
H 5.417019 2.156039 41.003645
O 5.570367 2.958754 40.458863
O 5.726849 0.902791 42.252797
H 6.184152 1.396528 42.990495
H 7.228935 3.344115 40.949749
H 5.056090 3.727017 40.788471
H 6.400854 0.259039 41.870925
H 8.683393 2.632574 40.988787
O 9.342679 1.155951 40.558089
O 8.223740 3.470925 41.279357
H 10.951773 0.676171 40.697052
H 9.296395 1.248334 39.554001
H 8.744844 0.381241 40.781129
O 11.877123 0.279349 40.918053
H 1.702089 6.623352 39.410377
O 1.177951 7.498681 39.301945
O -1.319320 7.127451 40.366046
O -0.015809 6.072437 42.579083
H 0.086638 5.066571 42.584618
H -0.651533 6.301676 41.857000
H 1.885156 6.503716 42.858408
H 0.225938 7.321624 39.589660
H -1.895166 6.518284 39.743597
O 2.843543 6.570241 43.140645
H 6.264744 7.330850 39.576667
H 3.946162 5.736272 41.982853
O 4.532300 5.370323 41.307499
H 5.228803 6.055606 41.079565
H 3.444215 5.246675 40.017386
O 6.428222 7.323141 40.557565
H 7.392973 7.013945 40.674387
H 2.849733 5.878889 43.816757
O 2.737268 5.160198 39.279397
H 8.259727 4.069640 42.943300
H 11.369787 7.059651 41.875237
O 11.543563 6.728481 40.959188
H 8.710257 5.055639 40.734284
O 8.937257 5.965536 40.390518
H 10.631196 6.300838 40.739528
H 9.940457 7.432034 43.828760
O 8.366007 4.333962 43.904563
H 8.807863 5.859065 39.412533
O 10.751301 7.736800 43.343467
H 11.538638 7.562778 43.979317
H -1.473840 0.578957 46.029677
H 1.723793 1.168109 48.741291
H 0.627565 1.324583 45.374133
H -0.033388 2.645230 45.966692
O -0.268269 1.807825 45.415385
O 2.237929 0.614287 45.655788
H 2.092377 0.278510 46.549696
H 3.389178 3.500746 48.588461
O 4.285207 3.761069 48.160968
H 3.621221 1.775546 45.776281
O 4.324944 2.516088 45.817242
H 4.324888 3.224988 47.345660
H 5.162035 2.122667 45.476564
O 6.860507 1.961659 44.525672
H 7.417318 1.295484 45.083156
H 7.376015 2.823342 44.334853
H 3.337347 3.956080 45.187392
H 11.612569 4.048984 44.007984
H 11.257854 1.169256 47.573011
H 9.270426 1.297803 48.279654
O 11.998179 4.102192 47.118716
O 9.677471 0.489521 47.889276
H 0.170621 7.678104 45.382349
H -0.544150 6.111351 44.187733
H -1.770644 6.490484 45.176497
O 0.474088 4.299468 46.531867
H 0.344503 4.329452 47.491323
H 1.922832 4.548828 45.644252
H -0.115217 4.979305 46.141722
O -0.795451 6.157178 45.137634
O 4.132363 6.241670 47.141673
H 5.935660 6.767389 46.925333
H 7.382283 7.071305 47.737145
O 2.816735 4.818455 45.209825
H 3.019267 7.461351 47.629296
H 4.200474 5.507495 47.757771
H 3.617415 5.839471 46.361907
O 6.796426 7.337527 46.943046
H 11.960234 6.143138 45.423134
O 8.250212 7.097526 44.507668
H 7.790839 7.842232 44.043351
H 8.145219 5.306523 44.059432
H 11.032812 4.778601 48.361284
O 11.082119 4.527231 44.725056
H 11.524478 4.177889 46.209776
H 10.110260 4.461471 44.446490
H 7.867065 7.091578 45.406354
H 2.252246 1.174324 52.694249
H -0.666297 2.674334 51.712827
O 1.968999 2.878359 49.345503
H 2.274453 2.808362 50.304144
H 1.178791 3.506039 49.378598
O -1.326170 1.903850 51.587789
H -0.589460 0.469773 50.814607
O 2.018748 0.486981 53.401999
H -1.767631 1.802368 52.434327
O 2.999293 2.385508 51.682296
H 3.080875 3.299914 52.080831
H 3.909896 1.995516 51.516123
O 5.423287 1.117213 51.502722
H 6.643189 2.235304 52.011088
H 6.915355 3.585317 51.393474
O 7.289211 3.008775 52.094465
H 5.622975 0.458834 50.815015
H 5.207872 0.579704 52.294199
H 8.849558 1.839230 51.871425
H 8.965017 2.153277 50.042416
H 10.289968 1.126215 51.443058
O 9.275239 1.059659 51.380306
H 8.084439 3.239811 49.274711
O 8.952480 2.718856 49.240159
O 11.938407 0.962354 51.596063
H 7.735936 3.907175 53.529484
H 12.015249 1.584687 52.411429
H 2.539953 7.508150 53.460440
O 0.098838 4.197379 52.014292
H 1.036171 4.473999 52.368662
H -0.007593 4.648682 51.132562
H -0.614858 5.125673 53.172026
H -1.158030 4.626254 49.409712
O -0.193508 4.870370 49.334549
H -0.155826 5.861505 49.168202
O 0.021123 7.595676 49.108654
O 2.768873 4.801769 52.810314
H 5.867045 4.063279 49.138312
O 6.751149 4.199018 49.612592
O 3.498978 7.474219 53.171327
H 3.146277 5.725650 52.709865
H 7.087955 5.141436 49.493206
H 9.894845 4.184426 49.261776
O 10.502361 4.982893 49.178515
O 11.468679 6.513731 51.211220
H 8.497137 7.086297 49.890518
H 11.264626 5.909790 50.439611
H 8.584612 7.352823 52.979459
O 8.203424 6.519558 49.071539
H 10.004987 7.699045 51.189837
H 9.052772 6.014191 48.862075
H 12.043288 5.739417 52.545789
H 1.384395 1.370331 54.811614
H 0.267566 2.085513 55.703599
O 1.260787 2.036536 55.564054
H 1.685758 1.351903 57.005365
H 2.063476 3.585457 55.492213
O -1.396312 2.313514 56.224201
O 1.874662 1.010403 57.890125
H 2.510033 1.667467 58.364231
H -1.762043 1.836238 57.007113
H -1.552203 4.040487 56.413855
O 5.860218 1.682884 57.708396
H 5.627565 0.973401 57.045976
H 6.261833 2.420191 57.233008
H 4.541758 2.687324 58.344770
O 6.992476 3.936583 56.693354
H 10.143448 3.930568 58.127091
H 9.322643 3.350166 54.978370
H 9.322475 1.727509 54.968523
H 10.481206 2.984387 56.915520
O 9.855836 2.565424 55.247498
H 11.289922 2.564519 54.317990
O 10.823497 3.257868 57.812632
O -1.799251 5.011955 56.203458
O -0.992173 5.829183 53.808226
H 0.180180 7.056312 53.962862
H -1.310914 5.379640 54.617998
O 2.287684 4.551231 55.354881
H 1.880348 4.909302 57.219374
H -1.253313 5.648721 56.782908
O -0.387024 7.146692 57.626708
H -0.067410 6.766357 58.475635
H 0.346860 7.685631 57.250080
H 2.637295 4.641113 53.803273
O 2.317598 5.027202 58.103202
H 6.582354 7.508150 54.351725
H 4.935706 7.546996 54.210082
H 2.915348 6.725871 58.386547
O 5.723547 7.651154 54.845350
O 3.402705 7.598529 58.244437
H 5.352937 6.242501 55.734305
H 6.199934 4.559893 56.668649
O 4.869722 5.497953 56.243895
H 4.448182 6.033663 56.958578
H 3.213135 4.805824 55.660134
H 5.316894 7.623537 58.568102
O 8.064683 4.454430 54.301035
H 8.295265 6.083369 53.887292
H 9.809160 7.515008 54.958735
H 9.577906 7.363384 57.353618
H 7.556227 4.268803 55.138075
O 8.372779 7.079438 53.886127
O 9.125249 7.287633 58.247642
O 10.394234 7.703355 55.766060
H 11.176982 7.036646 55.782433
H 7.556395 4.235880 57.454708
H 8.175217 7.587725 58.164206
O 0.237081 10.000903 2.444582
H -0.332126 9.770674 1.661437
H 1.181947 9.884241 2.099231
H -0.920771 11.012438 3.332192
H 0.223358 8.429487 3.379620
O -1.558914 11.514290 3.869952
O -1.717876 9.217532 0.610894
H 6.567523 7.997680 2.222527
O 2.976721 9.720052 1.611754
H 3.201723 8.887273 1.077600
O 4.298024 9.558656 3.865973
H 3.404445 9.614619 2.504840
H 4.570581 10.514955 4.027665
H 5.145637 9.057956 3.612501
O 6.571272 8.200170 3.187018
H 6.797881 11.238114 0.833375
H 3.378382 11.140936 0.769544
O 7.090138 10.408005 0.351952
H 6.390277 8.819473 0.348582
H 7.487612 8.554586 3.539902
H 8.116396 10.303665 0.484412
H 8.371604 10.230402 4.436484
O 8.848550 9.362297 4.331519
H 9.675512 9.622267 3.851284
H 10.707367 10.179962 2.058271
O 11.165845 10.181540 2.945583
H 11.365477 11.099661 3.311222
O 9.721684 9.897291 0.592461
H 9.632026 8.916894 0.547275
O -1.615917 14.269381 3.886762
H -1.587279 13.260456 3.718445
O 1.108905 14.622098 3.981659
H -0.614601 14.476605 3.952736
H 1.475682 14.300337 3.120776
H 1.808498 14.344950 4.644433
H 2.242300 14.694511 1.048496
O 2.554834 14.150352 1.786958
O 3.323596 12.027979 0.365681
H 2.742843 13.256571 1.407184
H 6.652872 11.891590 4.601305
O 4.943038 12.202365 3.959524
H 5.176698 12.513625 3.084814
O 6.358040 12.739605 1.498189
H 4.424788 12.906525 4.452903
H 7.068647 13.147618 2.095031
H 6.252319 13.339121 0.689279
H 3.871727 15.156728 2.214842
O 11.822388 12.461607 4.513290
O 7.639729 11.724610 4.700386
H 7.815464 14.812994 3.513688
O 10.574390 15.083769 2.100228
H 8.068881 12.476053 4.216457
O 8.298064 13.930017 3.286925
H 9.162131 14.222947 2.850704
H 10.560007 14.811659 1.142671
H 11.463083 14.809170 2.503436
H -1.236915 10.381723 6.777262
H -1.293335 8.883995 8.202609
O -1.216325 8.716043 7.214952
O -1.377236 9.147425 9.800421
O -1.251808 11.387188 6.639115
H -1.304970 11.506460 5.688247
H 0.217846 7.933037 6.558417
O 3.385282 8.029122 9.773036
H 3.804567 8.945543 5.271859
O 3.523649 8.503843 6.131641
H 3.810667 8.799382 9.321421
H 3.899374 9.158897 6.822593
O 4.511312 10.052253 8.369131
H 3.956180 10.865245 8.237859
H 5.435096 10.418445 8.623168
O 7.148511 11.093955 9.308020
H 7.773377 10.523817 9.839342
H 10.051999 8.226148 8.246716
H 7.778974 11.410193 8.584072
H 11.626505 9.511311 6.677279
H 9.385885 9.236348 6.030509
H 9.529047 10.319325 7.182090
O 9.796008 9.352282 6.933763
H -0.225359 12.324915 7.877896
H -0.006882 12.604066 9.452052
O 0.351662 12.828649 8.553308
H 0.647243 14.516969 8.435379
H 2.224996 12.459665 8.207328
H 5.489999 14.112051 9.689833
H 3.496303 14.645224 5.971026
H 3.302015 13.121760 6.274199
O 3.163258 12.437328 7.845150
O 3.322594 13.770442 5.527993
O 4.621678 14.408623 9.292813
H 3.729908 13.061730 8.406712
H 3.962672 14.280671 10.012973
H 11.411090 14.038667 8.381833
H 8.213834 14.641097 9.634831
H 8.150256 11.960119 6.454122
O 10.682518 13.767528 6.704372
O 11.384170 14.239942 9.345776
H 11.190358 13.401458 5.929326
H 10.286443 14.660520 6.447480
H 9.508620 12.554536 7.157793
O 8.783797 11.837630 7.222352
O 8.925001 15.285044 9.334764
H 9.852254 14.839823 9.441273
H 12.054145 15.006500 9.556464
H 0.629983 9.416865 11.990152
O 0.152661 10.083331 12.612951
H -0.671239 9.568489 12.854344
H 1.362249 10.731648 13.652289
O 1.992936 10.888856 14.390046
O 0.871546 8.134858 10.867669
H 1.762718 8.108819 10.409528
H 0.081075 11.558843 11.764257
H 0.163373 8.475314 10.238053
H -1.897550 9.958596 10.034240
H -1.789137 8.661597 14.665699
H 4.847447 11.068523 13.391202
H 5.193097 8.973525 13.039978
O 5.675024 9.732313 13.526610
H 6.653767 9.638595 13.345172
H 2.892604 11.184942 14.014816
O 8.381566 9.185422 13.307533
H 8.626363 9.195802 12.356350
H 10.090784 10.026274 11.121997
H 9.217650 9.540082 13.760371
O 9.191122 9.563026 10.832942
O 10.695558 9.945728 14.609764
O 11.708720 10.642907 11.960378
H 11.460900 10.387671 12.857782
H 9.464686 8.796469 10.300571
O -1.472690 14.495300 12.043406
O 0.135608 12.424581 11.214406
H -0.752015 13.779850 12.031170
H 1.103208 12.749074 11.286539
H -1.856343 14.564981 12.953803
H 7.007028 12.692199 10.312341
H 2.953238 14.339548 11.661127
O 2.918012 13.394842 11.286597
O 4.276645 11.885520 13.227010
H 3.434136 12.766190 11.887779
H 4.682010 12.611714 13.777501
H 6.346903 14.552477 13.510296
H 6.955594 13.893234 11.485049
O 5.129966 14.101490 14.623399
O 7.147784 14.637637 12.931488
H 4.230080 14.562614 14.720119
O 7.001431 13.676481 10.483758
O 2.763075 15.320006 14.708699
H 11.621020 11.657660 11.905026
H 11.538806 13.706223 11.123920
H 8.723129 14.167529 13.618029
O 9.640645 13.916360 13.994249
H 10.208313 13.572687 13.267970
O 11.439409 13.431382 12.036706
H 1.845503 9.443026 15.016748
H 1.827006 11.083758 19.639875
H -0.930739 9.088670 16.713787
H 0.300894 10.942574 19.029312
O -0.733412 10.663059 17.546283
H -0.170820 11.361999 17.138250
O 1.693442 8.523448 15.450709
H 0.043784 8.331824 15.770353
H -1.696314 10.915139 17.425499
O -0.942732 8.310276 16.070536
H 2.228051 8.540565 16.273300
H 5.416795 9.413769 15.193351
O 3.481534 11.058629 19.299023
O 3.331191 8.694738 17.819722
H 3.391372 9.591858 18.290856
H 4.075781 8.839139 17.204498
O 5.506621 9.266515 16.153681
H 6.620747 10.427489 16.613337
H 5.862736 8.337044 16.219172
O 7.218133 11.264457 16.890564
H 11.701556 7.878591 16.955938
O 12.044687 8.797136 16.774324
H 10.297356 10.793742 15.090163
H 11.137581 9.448246 15.329459
H 7.786865 11.026277 17.686819
O 8.805120 10.521875 18.882250
H 9.795840 10.563089 18.801611
H 8.449789 8.833919 18.380935
O 11.613129 10.465911 18.829345
H 11.846398 9.359262 17.598838
O 8.146562 7.862384 18.382217
H 11.876228 9.990098 19.666561
H 0.491192 15.205104 16.862014
H 1.781153 15.068108 14.955628
H 1.396859 11.797508 15.704804
H -0.591212 14.930566 15.610356
H 0.807459 14.860156 18.923444
H 0.744608 13.255418 16.217831
O 0.361069 14.854694 15.941537
O 1.106650 12.331591 16.486901
H 2.615821 12.923884 17.314561
O 1.382962 15.386592 18.343528
H 7.454704 14.326437 17.804107
H 2.800527 14.210868 18.175083
H 3.545140 11.992956 18.931659
H 6.363581 12.720121 17.172801
H 5.117933 13.559880 17.581708
H 5.420265 13.923341 15.526920
O 3.309577 13.369470 17.922910
O 6.022297 13.666769 17.166684
O 10.812640 13.828955 17.945168
H 9.601804 12.778148 15.244741
H 10.653751 13.012686 17.383489
H 9.084617 14.349685 18.139774
H 8.760795 11.830953 16.185902
O 8.248141 14.878973 18.169548
O 9.742280 12.077994 15.953773
H 11.199816 13.568924 18.779470
H -0.159492 10.305790 22.479090
O 0.537582 9.753618 22.073621
H 0.639956 10.204606 21.221315
H -0.229864 8.233189 21.968685
H 2.316059 9.000779 22.176576
O 0.850849 11.193986 19.880803
H 4.432455 9.836653 21.778332
O 3.210258 8.611157 21.987913
O 5.027380 10.639812 21.562750
H 5.993250 10.356958 21.535890
H 3.561633 8.142992 22.767562
H 4.153294 10.994775 20.049306
H 4.670985 11.431802 23.153105
O 4.763441 11.612500 24.119903
H 5.255051 10.828826 24.476720
H 7.933889 9.179656 21.534026
O 7.796492 10.146700 21.386498
H 8.400426 10.626579 22.060395
H 10.613343 11.012620 23.022882
O 9.611934 11.198538 23.165807
H 11.937959 8.411642 21.280338
H 8.631064 10.553377 19.832734
O -1.737669 11.668585 22.641185
O -0.672229 14.163705 22.452988
H -0.232243 13.970746 20.819226
H 0.013820 14.091475 23.184451
H -1.202305 14.989565 22.630930
H -1.522279 12.618937 22.489986
O -0.223490 13.720245 19.856564
H 0.211628 12.812260 19.861750
H 5.914561 13.195023 24.313752
O 6.574239 13.948530 24.471651
H 6.445739 15.134998 23.154620
O 11.223490 15.417123 23.295098
H 9.587532 12.147372 23.504795
H 10.450201 14.788533 23.501532
O 9.424558 13.749987 24.428884
O -0.411353 10.741360 28.456364
H 0.728109 10.207458 27.068657
H 1.629198 9.142873 26.176730
O 1.635052 10.040963 26.636211
H -1.033947 10.118171 28.964030
H 2.212845 9.223420 28.046816
H 2.218028 11.444912 25.858775
H -1.036801 11.369950 27.958078
O 2.469754 8.631127 28.799372
H 1.731393 7.966967 28.821979
H 5.479365 8.649579 24.643184
H 4.190792 8.544814 28.045768
H 5.254996 8.969216 26.922469
H 5.359653 10.588947 28.275333
O 5.760765 9.385241 25.253514
H 6.756018 9.356773 25.244833
O 5.162595 8.846362 27.893229
H 6.678112 8.459290 29.106781
O 5.636128 11.550284 28.457762
O 11.844886 9.920720 29.287870
H 9.013876 10.438172 24.638989
H 9.830987 8.360838 25.414385
H 8.526687 10.543787 26.078844
O 8.635262 9.904817 25.372201
H 8.712104 11.352530 28.221321
H 11.977471 8.956044 25.939357
H 12.055936 10.715138 28.719724
H 8.591664 9.376136 29.427357
O 0.900167 14.212143 24.635493
H -0.628335 15.035028 27.420580
H 1.567965 13.513264 24.883063
H 0.296232 14.384101 25.412113
O -0.932658 14.819064 26.461939
O 2.604874 12.304034 25.562379
H 2.578323 13.876967 28.884207
H 0.539580 15.016758 29.186371
H -1.799511 13.142155 26.753674
H 7.371706 11.854929 27.692679
H 3.381885 12.034717 24.974248
H 4.396301 13.974449 27.394535
H 6.841591 14.898639 27.500578
H 6.397888 14.383858 25.353090
O 5.985079 14.888138 26.972927
H 3.274318 12.915508 26.857386
O 3.702148 13.318787 27.694718
H 4.879180 12.095779 28.092438
H 11.467896 14.665072 26.952534
H 8.433559 13.901489 24.595989
H 9.979298 13.687832 25.223566
H 8.506931 13.636542 27.972178
O 8.365056 11.905733 27.471212
H 8.469265 14.739124 29.133058
O 8.475869 14.619549 28.180652
O 11.721536 13.941611 26.348263
H -0.315146 9.459657 33.578068
O 1.408030 9.083328 32.847595
H 2.078106 9.396470 32.162219
H 1.882117 9.182388 33.742959
O -1.188784 9.680962 34.024381
H -1.861621 9.226030 33.454720
H 1.693957 11.435140 30.820192
H -0.786149 11.561756 33.510422
H 2.748714 9.579779 30.230720
O 2.910636 10.183908 31.011826
H 3.809492 10.607581 30.955950
H 6.159750 9.871130 33.997579
O 7.013968 9.453223 33.591702
H 6.163108 11.446430 31.377092
H 7.338741 10.108096 32.921825
H 8.294706 10.897475 31.004252
O 7.849716 11.271862 31.788446
O 11.055870 9.147425 33.856285
H 10.288849 9.679384 34.167481
H 10.704904 8.268212 33.556160
O 9.070234 10.264515 29.599298
O 7.519513 8.090488 29.470648
H 10.084795 10.135653 29.517785
H 0.360980 11.613228 29.912824
O 0.848857 11.998662 30.705642
H 0.094949 12.058146 32.341851
H -0.548739 13.977059 33.464625
O -0.124625 12.259725 33.299909
O -0.776607 14.956727 33.549168
H 1.631840 13.575115 30.147692
O 2.046222 14.305982 29.657564
H -1.051828 15.314907 32.679849
O 5.225725 11.674412 31.032569
H 5.349131 11.693957 30.076375
H 5.469795 13.369530 31.520833
H 5.774141 14.503312 32.758390
O 5.813989 14.308228 31.753603
O 5.597791 14.950900 34.280166
H 4.661303 15.332692 31.025577
H 3.130299 15.424710 30.531020
O 8.314406 15.366865 30.909571
H 7.493769 14.862524 31.199732
H 8.415202 12.060271 32.028267
H 9.699466 13.174325 33.745639
O 9.641652 13.222944 32.766606
H 10.548981 13.084431 32.429133
H 9.013316 15.196485 31.621283
H -1.705933 9.442722 35.670204
O -1.088290 10.149552 38.985156
H 2.047554 10.471131 35.502691
H 2.076265 8.888912 35.927271
H -1.651005 9.293465 37.222744
O 2.423828 9.574376 35.264444
H 6.037408 8.232218 37.566277
H 4.102365 10.085455 34.992752
O 5.006280 10.551071 34.966183
H 5.448304 10.361814 35.826472
O 6.639440 9.939537 37.128005
H 6.965277 10.328612 38.002627
H 7.451290 10.065182 36.546283
O 9.865518 7.946208 36.935554
H 10.675634 8.467849 38.373253
H 8.027354 9.936745 34.711855
H 8.962274 11.176505 35.449844
O 8.808982 10.191556 35.438016
H 9.480189 8.732068 36.514062
H -0.426900 11.755991 38.143338
H -1.664935 13.411594 37.563247
H 0.845756 12.262820 34.679634
O 1.399316 12.189436 35.490863
H 0.461764 13.131169 38.504583
O -0.103923 12.607222 37.796076
H 0.836421 12.334566 36.281583
O 4.095873 13.015174 35.443610
H 4.559723 12.131955 35.161955
H 4.023564 14.067013 38.590117
H 4.999452 14.254996 34.736151
H 7.255799 15.277578 35.186834
H 5.984519 15.214270 37.942205
H 4.278547 13.692202 37.078654
H 3.075099 12.864461 35.366641
O 4.347554 14.455542 37.745735
O 9.390922 12.978573 35.493077
H 8.854651 13.821853 35.725381
H 10.214749 12.981851 36.087326
O 8.108001 15.361766 35.743211
H 11.090793 12.128313 38.020631
O 11.532369 12.496751 37.201885
H 11.942716 11.725277 36.704182
O 0.762456 10.129401 43.309964
H 0.998209 9.684422 41.593174
H -0.826479 10.942331 43.140121
O 1.303512 9.740325 40.665764
H 1.611871 10.716656 43.505795
H 1.453587 8.797197 40.303819