18432
Timestep: 20000000
H -1.881567 2.982018 4.144108
H 0.619005 3.391196 4.901839
O -0.354894 3.147746 5.134040
H -1.380016 1.291639 0.502733
H -2.085103 2.734690 0.415666
O 6.777556 0.378291 0.501701
H 2.957127 3.131202 4.182190
H 3.939580 1.012045 3.375606
O 3.900973 1.998566 3.152644
H 3.346074 2.002280 2.299130
H 5.493522 2.864784 2.947153
O 6.354909 3.355289 2.694924
O 2.494332 3.633145 4.910740
O 2.803314 2.001921 0.571690
H 7.079205 2.704174 2.845270
H 7.156418 0.889493 1.271337
H 8.616432 2.042484 4.465580
O 8.161032 1.149682 3.074855
H 9.027879 1.157261 2.571632
H 10.531509 1.633725 0.862919
O 10.406066 0.937368 1.525693
H 0.095666 6.613519 1.827690
O 0.239147 6.396543 0.880029
H 0.495396 5.427526 0.837395
H -0.350982 7.154863 4.106347
O -0.659795 7.470845 3.224491
H 6.550812 4.733593 3.961687
H 6.441015 6.300071 4.217970
O 6.509505 5.444896 4.683002
H 2.977415 4.507477 5.087593
H 5.678451 7.589969 0.486335
H 7.798603 4.329150 1.462637
O 11.616995 6.492632 4.853487
O 8.331329 4.492708 0.646468
H 8.667870 5.428176 0.657441
H 10.721052 6.013287 5.009373
H 7.975878 7.537640 0.586577
O 8.903393 7.164709 0.560503
H -1.373178 1.067596 9.709465
H 0.521290 0.411330 6.313337
H -0.218628 1.455969 5.369247
H -0.050358 0.675261 8.826426
H 1.935004 1.534421 7.473090
H -0.431533 3.588960 6.015337
O 1.371185 0.693024 7.729065
O 0.048663 0.464627 5.402721
O -0.748911 0.364087 9.468520
H 5.339715 0.954173 9.734573
H 3.154032 2.818393 6.275996
O 3.504721 2.257156 7.025338
H 3.936709 1.427678 6.660774
H 4.708165 2.448295 8.343138
O 5.483729 2.469117 9.011155
H 6.299420 2.178109 8.480679
H 6.050278 4.101593 9.368728
O 11.606865 0.436787 9.816947
H 7.542990 0.695440 7.265525
O 11.376126 1.329613 6.182670
O 8.989441 2.530958 5.289513
H 10.549124 1.798560 5.773861
H 8.447261 2.207938 6.041214
O 7.635229 1.641657 7.567290
H 8.450075 1.734762 8.184508
H 10.564431 1.828110 9.305521
O 9.724035 2.362416 9.344727
O 1.728043 4.427044 9.639500
H -1.989357 4.525340 8.122815
H 0.348686 4.529248 8.227500
O -0.278181 4.700421 7.454681
H 0.114615 5.495232 6.999064
O 0.141088 6.837423 5.742584
H 1.039889 7.341997 5.780875
H -0.613012 7.407211 6.097361
H 2.499729 4.895018 9.200719
H 7.200033 5.258844 9.065507
O 3.824154 5.892163 8.629289
H 4.814981 5.670016 5.408756
H 4.774629 5.612046 8.954064
O 6.278203 5.091026 9.482035
H 3.795283 5.878245 7.665450
O 3.932038 5.775185 5.885118
H 3.649017 6.689247 5.700453
H 3.476245 7.481968 9.326027
H 9.327052 4.333344 8.746267
H 9.083763 4.272098 5.564875
O 8.881444 5.153085 8.438036
O 9.978073 7.668372 8.866798
H 9.426945 6.858452 8.708342
O 9.124958 5.246537 5.808360
H 8.190803 5.527292 5.474311
H 11.441408 6.650958 8.672049
H 8.875479 5.095645 7.442856
H -0.484642 3.406287 13.190413
H 0.072103 2.031416 13.828137
O 0.289656 2.991530 13.691760
H 1.545748 2.983410 12.344425
H 1.664145 1.006897 11.467095
H 2.122877 3.194970 10.909938
H -2.130003 2.888785 11.047596
O 2.236237 2.590690 11.689632
H 4.734053 0.732200 11.585937
H 3.826292 1.918358 12.116936
O 4.595610 1.324514 12.383165
H 6.001992 2.344104 12.686618
O 6.741200 3.010541 12.967119
H 6.806595 3.023025 13.932939
H 4.524250 0.489344 13.803844
H 10.445291 3.233406 12.704270
H 8.263627 2.502569 12.435653
O 9.163677 2.107698 12.163250
H 9.264696 1.355735 12.799692
H 9.391715 2.191723 10.268894
O 11.045325 4.017015 13.050774
H -2.206400 4.815339 12.452897
O -1.402223 4.328567 12.086527
H -0.647150 4.982155 11.931975
H 0.663475 6.803874 11.314640
O 0.748297 5.915976 11.722022
H 1.317435 6.070065 12.528338
H 1.980634 7.423257 14.475357
O 2.296769 6.631570 13.901131
H 1.400191 5.016993 10.362394
O 4.334425 7.627894 12.236768
H 6.120287 4.550714 12.407807
H 3.093983 7.007174 13.415571
H 4.840249 6.771419 12.088508
H 6.223557 5.374941 11.064141
O 6.064798 5.474434 12.038175
H 3.866419 7.894099 11.385362
H 8.843682 5.556313 14.509320
H 7.195024 6.148960 13.123477
H 10.491608 4.355436 13.827205
H 7.972220 7.479476 13.669390
O 7.716325 6.546967 13.907831
H 11.623242 5.414471 11.886769
H -0.642051 2.027770 18.529015
O 0.206179 2.564021 18.400037
H 0.082655 3.085868 17.545777
H 1.693488 1.735218 18.265234
H 0.232900 3.714775 15.311616
O 0.294074 4.049780 16.237706
O -1.818528 1.005353 19.372673
H 5.450694 2.413767 19.418113
O 2.572187 1.220718 18.195444
H 3.307856 1.899396 18.527850
O 4.691338 2.959907 19.087046
H 6.640801 3.727642 15.962564
H 5.211232 3.864373 17.786256
H 8.087702 2.192957 19.723488
H 7.258168 0.878442 19.129165
H 7.234869 1.308918 15.938272
O 7.383611 3.231795 15.553726
H 8.218042 3.853548 15.536017
O 0.038353 6.360995 19.547498
H 1.060707 6.445651 19.437628
H 1.263188 4.422480 16.282329
H -1.054753 5.022402 16.837564
H -1.378226 6.559244 16.735966
H -0.479791 6.167619 18.667256
O -1.514841 5.770396 17.300871
O 2.942636 6.980432 19.592705
O 5.273251 4.353023 16.907529
H 2.748297 5.588702 15.287323
O 2.679543 5.197404 16.207354
O 6.773785 6.732278 16.485583
H 3.580640 4.833420 16.463097
H 5.715369 5.249290 17.085325
H 3.057273 7.582007 18.806429
O 11.120793 6.624519 16.782862
O 8.990905 7.020667 18.393979
H 7.205379 6.596744 15.610526
O 9.537137 4.954823 14.977520
H 10.473036 6.568847 17.529524
H 7.541414 6.769960 17.140085
H 8.888592 6.439756 19.189751
H 10.130023 5.519561 15.593457
H -1.466751 3.321253 21.212444
O -1.367764 1.420074 23.721629
H -1.119534 3.054611 24.201656
H -0.652192 0.732131 23.469674
O -1.240813 3.991458 24.478836
H -2.094444 0.948144 24.267252
H -1.973999 2.181670 22.183332
H -1.975438 1.629854 20.150735
O -2.260628 2.758059 21.454205
H 0.154285 3.494876 19.819960
H 2.523687 2.997559 23.347221
O 2.759457 2.234334 23.946321
H 4.539838 2.047231 23.973818
H 6.068118 2.878070 24.091902
O 5.595103 2.004528 23.874259
H 6.358455 1.063803 22.630211
H 2.922196 0.621474 23.231234
H 4.451707 3.641715 19.767530
H 7.064291 0.936401 21.251941
O 9.760278 2.885017 20.547980
O 9.522955 1.602522 22.916304
H 9.727412 2.439355 21.450418
H 8.538825 1.227653 22.685553
H 10.178084 0.844940 23.148394
H 9.864223 2.911626 24.011160
H 10.703663 2.647396 20.272839
O 7.058382 0.544104 22.158806
H 7.977342 4.078893 24.538664
O 7.207011 1.640624 19.732809
O 0.077337 4.045253 20.643345
H 1.377618 4.184275 21.791796
H 0.000996 4.935411 20.202000
O -0.929900 7.684600 21.704354
O 0.225944 6.036631 23.559854
H -0.214908 6.567206 22.866088
H -0.613889 7.338047 20.831802
H -0.406506 5.309162 23.850083
H 1.596651 5.093639 22.943101
O 2.129315 4.375049 22.466454
H 5.292160 6.803144 23.111227
H 3.624537 4.767580 21.576658
O 4.233575 4.888661 20.834714
H 5.746716 5.468994 21.717054
O 6.599380 5.685702 22.243801
H 6.690494 5.103461 23.032058
H 3.882064 5.661446 20.373679
O 4.612662 7.323521 23.631100
H 4.339208 6.735864 24.391336
O 6.983026 4.276808 24.443184
H 2.920147 7.616833 20.335930
H 7.459924 7.341389 22.852164
H 9.147132 4.493176 20.493511
H 7.944419 5.426262 21.109856
O 8.857414 5.424882 20.668220
H 10.945207 6.580517 23.200067
H 10.000584 6.461393 21.865081
O 10.525768 7.115540 22.434880
O 11.406291 5.807306 24.578220
H -1.762958 2.411634 29.100662
H -1.795852 1.112735 28.112297
O -1.854577 2.120194 28.142939
H -0.790512 3.158643 27.451795
H 1.421188 3.667272 26.618623
O -0.252310 3.887802 26.997226
H -0.996049 4.035941 25.432131
O 2.385671 3.489224 26.326413
H 2.617373 2.468771 24.872178
H 3.379559 3.123107 27.754899
O 3.977455 2.883054 28.524688
H 3.743620 1.908688 28.605081
H 5.521886 2.743303 27.698216
H 6.653913 2.034461 26.733853
O 6.425988 2.837331 27.261823
H 6.576137 1.150727 24.989621
O 7.046789 0.633297 25.679659
O 8.403139 2.652702 29.423165
H 9.872890 1.507460 29.324014
O 10.871933 1.379031 29.186938
O 9.734165 3.653408 24.720713
H 11.069806 1.730264 28.289976
H 7.690494 2.695173 28.671959
H 10.047689 3.228167 25.525515
O 11.248431 2.495087 26.719405
H 8.957926 3.517024 29.351102
H 11.663593 3.253256 27.231996
H 0.380477 5.831392 29.153732
H -0.222658 4.768893 27.496826
H -0.850656 6.576080 28.410449
O 0.148568 6.316189 28.283277
H 0.708149 6.810073 26.595787
H 0.890500 6.778104 25.057139
O 1.254038 7.204093 25.904118
H 1.770656 7.703805 28.810665
H 7.001035 6.200870 27.134709
H 2.825313 4.357053 26.179084
H 6.329359 4.702001 27.120145
H 2.851094 6.481328 26.042824
H 4.409499 5.916547 26.286857
H 6.725893 4.756628 25.261384
O 3.570622 5.906136 25.738963
O 6.178647 5.628961 26.769680
H 10.772378 5.040210 24.749666
H 8.042905 7.544447 28.449946
H 8.890618 6.215639 28.386914
H 9.717732 7.765130 26.775505
H 11.213089 6.528613 25.236042
O 8.438426 6.887382 27.811640
H 10.850322 4.915391 29.184608
O 9.856569 5.020305 29.309857
H -0.839158 3.815982 30.776093
O -1.676009 3.204962 30.638202
H 1.755551 2.674278 33.579178
H -1.665018 1.090776 33.237800
O -2.294318 1.293268 32.476633
H -1.729945 2.693739 31.466131
O 2.614699 2.550602 33.052315
H 2.671928 1.575968 32.906151
H 2.843148 3.225875 31.506677
H 5.836479 0.872361 31.242371
H 3.314091 3.530480 29.999429
H 3.469604 3.803516 34.010503
H 6.005650 3.939597 31.938875
O 6.936315 2.315946 31.581069
O 3.066239 3.963604 30.847165
H 7.325138 2.428858 30.681428
H 7.776880 2.308568 32.201724
H 10.170937 2.549471 32.185122
O 9.490201 2.289459 32.885704
H 9.627969 3.083662 33.537467
H 9.872327 0.868125 33.644366
H 11.588518 2.382382 30.537653
H 1.399116 4.579808 30.597598
H -0.290258 6.441883 33.158107
H 0.361669 5.681837 31.220292
O -0.303292 6.805028 32.222755
O 0.494856 5.011936 30.502117
H 0.341077 7.585289 32.303380
H -1.875849 7.697849 31.885979
H 6.843401 7.488653 32.446748
H 4.542315 4.602636 31.603672
H 4.833834 4.569324 33.775616
O 5.466846 4.791071 32.031968
H 6.354459 6.251224 31.617479
O 7.041273 6.991798 31.622372
H 11.362563 5.715344 32.165781
H 9.769170 5.216179 30.255637
H 8.670628 6.249559 32.004820
H 9.402914 5.418707 33.068684
O 9.542145 5.810229 32.167820
H -1.966889 1.245686 36.303968
H -0.422416 1.803489 34.950632
O 0.718875 3.063223 35.003994
H 1.248449 2.048762 37.921261
H 1.211644 2.800640 35.849458
O 1.718509 1.687732 37.123741
O -0.971597 0.939817 34.900183
H 0.495666 4.029043 35.025316
H -2.113659 2.591304 38.429483
H 2.716647 1.758672 37.463954
O 4.294017 2.034589 38.427152
H 4.986740 1.340170 38.410608
H 4.990342 2.513029 36.843473
H 4.836816 3.112404 35.361975
O 5.324857 2.449413 35.931482
H 6.920389 3.240979 36.061334
H 5.486656 0.702793 35.239114
O 10.806595 0.576700 36.887340
H 10.594427 0.508521 35.906607
O 7.841487 3.674613 36.344456
H 8.278203 2.960150 36.897768
O 8.528977 1.603495 37.995245
H 9.305272 1.100488 37.610234
H 7.687624 1.024985 38.003925
O 0.384495 6.978913 38.903275
H -2.251681 4.774570 38.744238
H 0.953582 6.175642 39.100121
O -0.250374 5.787085 34.887716
H 0.452743 6.335948 35.471437
H -1.125325 6.011609 35.336692
O 1.571259 7.357921 36.434577
H 1.158894 7.309177 37.336782
H -0.599646 6.694049 38.883236
O 3.803781 5.890401 36.870388
O 4.203579 4.338765 34.482956
H 6.730676 7.015014 37.724298
H 2.467465 6.859303 36.487007
H 4.570848 6.535906 37.083720
H 4.046733 5.485903 36.013214
O 5.963047 7.636464 37.743290
H 3.060909 5.257829 38.434842
O 9.481872 4.404162 34.433264
O 9.913241 7.501416 37.139703
H 7.879812 4.911337 37.449507
H 8.728481 4.128815 35.067901
O 11.392165 5.476658 36.190020
H 8.651099 6.335267 37.670004
O 8.007056 5.706379 38.101911
H 10.262614 4.694082 35.023568
H 10.545241 6.760539 36.821686
O -0.599578 3.299993 42.918194
H 0.517643 2.349015 42.162735
H 1.032185 2.459034 40.102118
O 1.204294 1.807293 41.644435
H -1.536744 3.206269 42.504404
O 0.846288 2.988132 39.299880
H -0.780241 3.140969 39.204923
H 2.033569 1.770304 42.193669
H -0.623834 2.921775 43.846148
H 1.429197 3.819744 39.353067
O -1.821745 3.191797 39.169154
H 5.700624 0.557291 42.056710
H 4.918757 2.586703 41.500718
O 4.884709 3.378633 40.897423
O 5.018762 1.131363 42.502366
H 5.462400 1.495116 43.349577
H 6.534604 3.650351 41.209557
H 4.368191 2.526218 39.252168
O 7.539726 3.758511 41.625502
H 8.075321 2.945734 41.379663
O 8.989498 1.440088 40.608767
H 10.708840 0.902203 40.929173
H 8.858595 1.448567 39.593255
H 7.752231 3.905957 43.181043
H 8.356654 0.681608 40.871150
O 11.640012 0.559500 41.178390
O -0.500659 6.081667 42.663792
H -0.587630 5.107302 42.530736
H 1.263892 6.593401 43.275184
H -1.083809 6.556509 42.027407
O 2.294344 6.635034 43.408765
H 4.467128 4.185460 41.309815
H 3.285908 6.288876 42.130578
O 3.826968 5.916955 41.347914
H 4.629995 6.522231 41.144019
H 2.942360 5.479533 40.040075
O 5.987922 7.363938 40.530471
H 6.877561 6.906588 40.781553
H 5.982857 7.364789 39.552942
O 2.432190 5.174042 39.189718
O 11.195868 6.508191 41.110988
H 8.256930 5.176831 41.155729
O 8.455647 6.039725 40.667255
H 10.241791 6.142275 40.931445
H 11.135988 6.832439 42.048787
H 8.285125 5.766980 39.736098
H 1.546603 0.947274 48.695287
H -1.367488 0.817813 45.852762
H 0.521796 1.865609 45.476082
H -0.356621 2.990156 46.060793
O -0.445000 2.222908 45.431108
O 1.942900 0.969404 45.841228
H 1.904755 0.432524 46.638689
H 3.267291 2.115587 46.017509
O 3.993663 2.833703 46.064463
H 4.127491 3.221335 47.716301
H 4.803781 2.436480 45.634770
O 6.196488 1.965363 44.798394
H 6.592458 1.129801 45.210844
H 3.133614 4.132936 45.712891
O 4.010321 3.741037 48.576678
H 6.925060 2.707341 44.741420
H 2.359193 0.368451 45.158588
O 7.886678 3.965203 44.168942
H 11.250289 3.417586 47.268490
H 8.910540 1.394408 48.246194
H 11.014597 1.209219 47.475414
O 9.098226 0.586206 47.672376
H -0.453723 7.600909 45.526880
H -2.268089 6.431004 45.259429
O 0.062676 4.532536 46.872643
H -1.095211 6.172663 44.141911
H -0.202386 4.570291 47.811549
H 1.665214 4.796668 45.998052
H -0.481293 5.188604 46.354634
O -1.273595 6.183871 45.137966
H 2.377246 7.666306 47.765061
H 0.290033 7.819708 48.786166
H 7.049040 7.510533 44.491969
H 2.423890 6.019711 44.151757
H 7.004749 6.887078 45.914863
O 2.582205 5.008289 45.617468
O 3.684698 6.409610 47.572818
H 6.958601 7.117364 48.290643
H 3.778006 5.583153 48.136790
H 5.395486 7.045342 47.640452
H 3.344161 5.961553 46.720654
O 6.360256 7.265661 47.485784
H 11.540401 7.699004 45.566727
H 11.320974 4.122270 44.072995
O 11.281635 4.421076 47.277462
O 10.634610 4.626874 44.652114
H 10.451144 6.273129 44.319708
H 9.676030 4.268099 44.468725
O 7.409499 6.719818 45.018251
H 10.486487 4.987060 48.641109
H 11.052866 4.665681 46.331624
H 9.196487 7.108794 44.573644
H 7.650874 4.895103 44.430918
O 10.153266 7.240924 44.286851
H -1.189763 2.730393 52.075860
H 1.965777 1.181158 52.421141
O 1.579351 2.563833 49.600462
H 0.866976 3.220612 49.557761
H 1.966571 2.552790 50.547874
O -1.797954 1.964634 51.893636
O 1.478068 0.391078 52.817687
H -1.086420 0.519861 51.414542
H 5.635285 0.522260 50.957993
H 2.830074 3.370793 52.557051
O 2.806972 2.524303 51.952941
H 3.756452 2.227746 51.790699
O 5.193786 1.020663 51.656245
H 6.417209 2.289575 52.397140
H 6.876830 3.643447 51.849304
O 7.030581 3.063861 52.622298
H 3.163216 3.319576 48.931805
H 4.809859 0.346930 52.235772
O 8.718351 1.030959 51.587736
H 8.399594 1.738949 52.265074
H 8.597861 2.043426 50.289219
H 9.801530 1.003293 51.714209
H 7.697022 3.111875 49.555431
O 8.593752 2.664182 49.510516
O 11.500894 0.986136 51.789242
H 11.488569 1.682827 52.543070
O -0.236508 4.314296 52.100852
H 0.713838 4.480358 52.500369
H -1.480843 4.431578 49.572150
H -0.248388 4.696598 51.202900
H -1.207046 5.283757 53.297888
O -0.554888 4.866186 49.511739
H -0.661878 5.840004 49.431696
O -0.569706 7.499228 49.201179
H 5.390308 4.053336 49.759559
O 2.349924 4.710212 53.346939
O 6.266441 4.254619 50.233643
H 2.726000 5.671383 53.291422
O 3.014086 7.386486 53.608623
H 6.565726 5.153304 49.953608
H 8.501119 6.157220 49.540634
H 9.590826 4.178823 49.531138
O 9.991298 5.081119 49.463504
H 7.920276 7.124353 50.590400
O 11.160075 6.788132 51.447690
H 10.778287 6.205435 50.695843
H 8.156755 7.427268 53.492229
O 7.676481 6.696723 49.741208
H 9.794833 7.884253 51.956902
O -1.895543 2.295494 55.644599
H 1.844589 0.708487 57.941734
H 0.019140 3.377618 58.312473
H -0.271197 1.762616 55.162068
O 0.708334 1.516042 55.110919
H 1.860887 2.759791 55.496630
H 0.898452 1.166201 54.222929
H 1.147464 4.093230 57.401821
O -1.427452 2.132137 58.238488
H 0.999431 0.414797 56.625856
H -1.966608 2.029216 56.574941
O 0.897822 3.920555 58.322843
H 2.313850 2.794112 58.521960
O 2.403641 3.577497 55.738973
H 6.982069 4.097442 54.075426
H 3.360312 3.367268 55.932556
O 5.031988 1.912341 57.239405
H 5.272969 1.235931 56.520181
H 5.415071 2.811550 57.102154
H 6.234194 1.056230 58.240003
H 3.677888 1.953870 58.331697
O 11.512037 2.809398 53.876308
H 8.498305 3.120858 55.130318
H 8.937722 1.567113 55.018002
H 9.852855 2.723289 56.960477
O 9.241678 2.482379 55.292560
H 10.684134 2.741327 54.438882
O 10.290133 2.887564 57.850506
H 9.582159 3.507749 58.315036
O -2.144304 6.541194 57.568316
O -1.712905 5.933298 53.801799
H -2.023757 5.447321 54.612834
H -1.315465 6.385470 58.113297
H 2.008402 7.578239 53.792187
H -0.353858 7.233327 54.161819
H 2.297867 4.467674 54.308972
H -2.114297 7.506157 57.433221
H 1.703275 7.234056 58.553360
O 5.944813 4.440604 57.123418
H 3.758084 7.313432 57.798018
H 6.714918 4.557600 55.581333
O 4.677438 6.940866 57.556140
H 4.861016 7.409582 56.696695
H 6.732196 4.517414 57.791318
H 5.421374 5.251660 57.207014
H 4.510349 7.897017 54.666138
H 7.753806 6.306666 54.486303
O 10.073633 7.626800 56.312150
O 7.389914 4.609103 54.832982
O 7.973740 7.265965 54.444708
H 9.412932 7.311487 55.604286
H 9.283718 7.235211 57.893033
H 10.951904 7.080350 56.195930
O -0.180100 9.923640 2.216989
H -0.631330 9.714627 1.304730
H 0.810203 10.039300 1.996742
H -1.201998 11.148245 3.211022
H -0.267725 8.372175 3.072420
H 2.613377 9.336652 0.986100
O 2.818554 10.169850 1.571016
O 4.199358 9.492607 3.833291
H 3.280916 9.828159 2.368174
H 4.520648 10.443166 4.040413
H 5.038235 8.892794 3.730243
H 6.249276 11.479178 1.271850
H 6.258112 9.067773 0.875605
O 6.496336 10.769966 0.564155
H 3.295981 11.426302 0.564461
O 6.373875 8.060265 1.048871
H 3.226703 8.661475 5.000402
O 6.392616 7.911117 3.688514
H 6.466340 7.911603 2.685324
H 7.254003 8.431858 4.034704
H 8.089391 10.338690 4.803346
O 8.569271 9.464102 4.569963
H 9.299813 9.791449 3.975406
H 10.370892 10.643732 2.211577
O 10.761685 10.485771 3.130385
H 10.950722 11.392631 3.541897
O 9.330316 10.163407 0.765847
H 9.297562 9.165199 0.831720
H 7.526106 10.693569 0.721495
H -1.877681 13.535765 3.315882
O -1.795800 14.527349 3.258833
O 1.070730 14.891892 3.741142
H -0.761264 14.729556 3.342348
H 1.597011 14.453626 3.000842
H 1.975361 14.831236 0.949801
H 1.503928 14.409198 4.548012
O -1.869040 11.781546 3.608943
O 2.494023 14.335536 1.657333
H 5.894163 13.447091 1.248484
H 2.835280 13.514615 1.161811
H 6.456829 11.975669 5.106910
H 4.145444 12.898453 4.681376
O 4.785604 12.207960 4.303845
H 5.077460 12.653520 3.472240
O 6.078642 12.903133 2.047244
H 6.940086 13.211639 2.474135
O 10.123664 15.127405 2.078236
H 7.476075 14.901130 3.792943
H 7.834678 12.617418 4.662513
O 8.099014 14.067507 3.707209
H 8.928099 14.388473 3.252186
H 10.015610 14.820540 1.144620
H 11.128053 15.025906 2.390742
O 11.493915 12.759273 4.493980
H -0.331032 8.607080 9.954430
O -1.793509 8.556209 6.804083
H -1.572767 10.354735 6.591508
H -1.764553 8.504244 7.775961
O -1.511818 11.331671 6.489735
O -2.061396 8.624340 9.504930
H -1.694412 11.449823 5.519884
O 3.196111 8.298938 9.843453
O 2.732703 8.171366 5.709046
H 3.660554 9.141921 9.490249
H 2.730097 8.763581 6.461598
O 4.423343 10.637775 9.196757
H 4.032157 11.382238 8.681545
H 5.428183 10.758540 9.289384
O 7.252878 11.444535 9.582701
H 9.873565 8.221082 8.068463
H 7.919601 11.666616 8.894644
H 9.694095 9.301036 5.989704
H 9.910090 10.349508 7.180065
O 10.254960 9.488535 6.830997
H -0.479656 12.354860 7.781670
H -0.113788 12.658990 9.375486
O 0.115729 12.900823 8.390791
H 0.208593 14.686282 8.216840
H 2.053430 12.750338 8.279930
H 3.277033 14.980202 6.073190
O 3.019567 14.039428 5.786083
H 2.969745 13.584691 6.673940
O 3.076926 12.821448 8.185440
O 4.118543 15.035205 9.579438
H 3.398806 13.523610 8.798580
H 5.054893 14.691023 9.813510
H 10.820889 13.470369 5.967200
O 7.460937 11.879580 5.190833
H 11.462681 14.130290 8.502700
O 8.991749 11.849252 7.632711
H 9.645640 12.607451 7.457303
H 8.293229 11.932092 6.895602
O 11.321255 14.374251 9.420750
H 7.943631 14.685006 9.718436
O 10.544790 13.924619 6.780256
H 9.555371 15.022503 9.416556
H 10.009589 14.738308 6.559526
O 8.607991 15.395312 9.393545
H 0.096387 9.644794 11.729828
O -0.283984 10.282531 12.363533
H -1.039068 9.800688 12.872454
H 0.951516 10.713382 13.441320
O 1.546232 10.817251 14.244140
H -0.367646 11.632763 11.418044
O 0.477725 8.439638 10.580678
H 1.381889 8.495978 10.164500
H -1.958650 8.564414 14.446287
H 2.371118 11.313620 13.909112
H 4.606021 11.113845 13.502605
H 5.057031 9.078834 13.115845
O 5.563137 9.724655 13.688149
H 6.566289 9.595807 13.491652
H 3.256913 11.501240 10.426417
O 8.239090 9.149761 13.256475
H 8.471742 9.282256 12.299277
H 10.024671 9.926375 11.151991
H 8.996814 9.564020 13.808796
O 9.125971 9.627715 10.765989
H 11.109369 10.632001 13.049958
O 10.362507 10.386218 14.622044
O 11.348493 10.764314 12.111927
H 9.321818 8.878329 10.134847
H 7.790387 10.809046 10.121682
O -0.087141 12.489968 10.975418
H -1.304581 13.877152 11.697263
H 0.941415 12.419344 11.003788
O -1.851926 14.703908 11.747538
H -2.008888 14.962516 12.691919
O 3.894276 11.842020 13.367918
O 2.663498 12.098500 10.932658
H 3.184624 12.122386 11.784530
H 4.348100 12.635955 13.863090
H 6.039866 14.722809 13.606999
O 4.866981 13.976219 14.628161
H 6.580696 14.149617 11.389149
O 6.699611 14.934619 12.918126
O 6.454746 13.907723 10.390065
H 3.660160 15.115675 10.441796
H 4.001879 14.491673 14.735468
H 6.696122 12.942274 10.209356
H 11.215847 11.726117 11.959705
H 11.071325 13.639755 11.042936
H 8.256592 14.181708 13.415279
O 9.177128 13.999376 13.823768
H 9.784084 13.765504 13.097029
O 11.014822 13.424968 12.007299
H 1.378451 11.115729 19.456270
O -1.142045 8.087858 15.938796
H -0.144296 8.129734 15.689579
H 1.485193 9.382296 15.018998
O 1.479318 8.490751 15.469372
H -1.238044 8.871704 16.518206
H -0.158388 10.758479 19.003274
O -1.089724 10.477019 17.421401
H -0.557229 11.132261 16.899897
H -2.074853 10.679043 17.197642
H 2.034352 8.551833 16.312622
H 5.832033 8.223270 16.331555
H 5.389126 9.280068 15.345171
O 3.059187 8.774886 17.611781
H 2.947115 9.608449 18.166665
H 3.944082 8.972352 17.119171
O 5.408936 9.124356 16.305107
H 6.599830 10.282470 16.892557
O 3.139253 10.983356 19.216199
O 7.191197 11.020430 17.232245
H 11.591276 8.273654 16.815077
H 8.949090 7.985022 18.716890
H 9.975484 11.198873 15.059719
O 11.647666 10.248010 19.217713
H 10.934795 9.920298 15.317209
H 7.806707 10.610425 17.912147
O 8.840643 9.762702 19.043354
H 9.850041 10.058992 19.164642
H -2.108197 13.238685 19.180488
H 1.677759 15.166545 14.920197
O 1.024959 15.260021 18.304382
H 0.961365 11.824455 15.439953
H -0.846739 15.204045 15.385950
H 0.512325 14.805345 18.980904
H 0.285739 13.163807 16.117408
O 0.018746 14.827529 15.722027
O 0.637306 12.226194 16.271436
H 0.161827 15.129836 16.653068
H 2.321745 12.858461 17.140551
H 2.533406 14.080696 18.091224
H 4.826292 13.194804 17.406080
H 5.257436 13.793826 15.534502
H 3.250182 11.872834 18.790234
H 6.311913 12.454048 17.292074
O 3.023389 13.266096 17.759167
O 5.806314 13.337388 17.190593
H 7.102391 14.295301 17.648424
H 10.315684 13.359936 17.269296
H 8.690888 14.395888 18.063029
H 11.186357 13.583172 18.594436
O 10.716156 14.049213 17.890126
H 8.565613 11.960536 16.280407
O 7.832314 14.918330 18.024172
O 9.357948 12.476293 16.003984
H 9.075096 13.101207 15.292275
H -0.595807 10.704448 22.515855
O 0.187197 10.134660 22.210479
H 0.287681 10.484738 21.325751
H -0.525438 8.620694 21.852673
H 2.117052 9.141192 22.064898
O -2.270384 11.437120 22.595374
O 0.424188 11.106369 19.740907
H 4.229860 9.934520 21.669809
O 3.009184 8.711981 21.938716
O 4.713906 10.792150 21.420766
H 5.688637 10.625012 21.423912
H 4.636580 11.659201 23.021980
H 5.177522 11.067350 24.401880
H 3.785604 11.011070 20.001193
H 3.194822 8.218833 22.760295
H 5.508886 8.657403 24.569656
O 7.492621 10.311644 21.402940
H 7.660554 9.429884 21.854246
H 8.077572 10.940812 21.959339
H 10.074646 11.238803 23.071905
O 9.093780 11.598971 23.194533
H 11.628419 8.262046 21.623204
O 7.965017 8.193793 23.110062
H 8.605120 10.729914 24.570589
H 8.367403 10.027995 19.865923
O 11.734334 10.898328 23.225233
H 8.950103 7.932389 22.971355
O -1.410102 14.000105 22.442045
H -0.756852 13.940543 20.782983
H -0.723783 13.965036 23.182124
H -2.049432 14.758364 22.685786
H -2.003337 12.376436 22.427714
H -0.113316 12.750034 19.913926
O -0.570910 13.644861 19.840932
O 4.747278 11.875994 23.996713
H 6.016061 13.335990 24.140953
O 6.433811 14.259685 24.236201
H 5.827812 15.299040 22.899352
H 9.171219 12.594627 23.468858
O 9.274376 14.187725 24.124118
H 8.228341 14.196173 24.239755
H -1.419185 10.364277 28.758293
O -0.852175 11.079749 28.329940
H 0.241572 10.360569 27.237356
H 0.816889 9.138821 26.288197
O 1.070150 9.948559 26.771952
H 1.918875 11.335622 25.736866
H -1.543947 11.639995 27.828825
H 1.803404 8.983110 27.993281
O 2.396713 8.484066 28.662113
H 6.378377 8.796037 28.924031
H 4.098339 8.908293 28.060799
O 5.019494 9.190847 27.805698
H 5.157825 9.194129 26.836674
H 5.372018 10.918689 28.005398
O 5.676087 9.423199 25.204701
H 6.676762 9.513271 25.278744
O 10.208137 8.120495 25.983753
H 8.675130 10.872012 26.095662
O 8.407473 10.234699 25.368574
H 9.559985 8.728756 25.528660
H 11.733940 9.102780 25.880699
O 7.232674 8.620876 29.438544
O 1.727041 14.514160 29.302401
H 0.278108 15.313262 29.160665
O 0.325314 14.071154 24.641311
H 0.987956 13.358417 24.980999
H -1.345754 15.011502 27.458669
H -0.318352 14.292566 25.358904
O -1.618977 14.768149 26.542832
O 2.318014 12.183285 25.417392
H 2.374528 14.266979 28.566749
O 5.593021 11.897813 28.189893
H 3.120254 11.982598 24.855109
H 3.021261 13.263118 26.644896
H 4.829894 12.428522 27.900654
O 3.530159 13.612345 27.467698
H 6.513613 15.240572 27.220520
O 5.649749 15.282327 26.672626
H 6.169587 14.629577 25.120114
H 4.169756 14.315357 27.182654
H 10.952185 14.468760 26.873025
O 11.256423 13.802761 26.245670
O 8.135539 15.035631 28.138279
H 7.290528 12.096859 27.824689
H 8.628419 11.782944 28.615975
H 8.291147 14.018824 28.059401
O 8.310956 12.332554 27.871352
H 7.944813 15.164297 29.075437
H 9.747278 14.093581 24.982747
H -0.416298 9.590945 33.500126
O 1.317316 9.091840 33.039906
O -1.331656 9.901943 33.831250
H 1.819106 9.323220 33.907099
H 1.794805 9.457295 32.301108
H 1.417170 11.506346 30.415374
H -0.862941 11.547553 33.153854
H -1.982668 9.417182 33.204886
H 2.484973 9.512603 30.108134
O 2.556379 10.202609 30.842854
H 3.487950 10.614619 30.794677
H 5.869795 11.435783 31.282393
O 6.908627 8.776892 33.753363
H 7.161370 9.600730 33.267220
H 8.220799 11.097617 31.652024
O 7.528920 11.192673 32.372588
O 8.871764 10.781210 30.033159
H 8.291934 9.941266 29.838993
H 9.835071 10.432165 30.022324
O 11.643220 9.873256 29.587853
H 6.992818 8.053883 30.203033
H 0.004575 11.881525 29.721375
H 1.286240 13.663398 29.626185
O 0.691023 12.190517 30.399587
H 0.027098 12.290010 32.067736
H -0.734954 14.131019 33.261044
O -0.281355 12.342036 33.004021
O -1.024239 15.056295 33.473211
H -1.565676 15.335081 32.679653
H 5.282311 11.805918 29.881229
O 5.018650 11.705939 30.822639
H 5.370386 13.315933 31.253789
H 5.489920 14.400446 32.483332
O 5.511699 14.256950 31.525493
O 5.105880 14.926475 34.042078
H 6.957419 15.120598 31.052632
H 4.245506 15.404489 31.098654
H 2.773768 15.372399 30.378848
H 7.905025 11.911914 32.988874
H 9.384849 13.251691 33.841562
O 8.456209 13.125457 34.105460
H -1.771485 9.548036 35.461126
H -1.538685 9.538676 37.068573
H 1.931358 10.508988 35.638514
O -0.857527 10.344463 38.652951
H 2.079441 8.941902 35.974125
O -2.194983 9.306628 36.318008
H 6.128054 9.138031 34.323743
O 2.503798 9.700466 35.495206
H 4.157769 9.989098 35.340420
O 5.139478 10.202913 35.158779
H 5.593077 10.309516 36.018690
H 6.620372 10.663788 38.390102
H 6.293229 8.566663 37.554891
O 6.636411 10.340513 37.457546
H 9.568146 8.005991 36.327853
H 10.969913 9.288577 34.529094
H 8.496110 8.878086 34.569990
H 7.496054 10.774099 37.083778
H 9.161257 10.051820 35.470971
O 9.335381 9.105637 35.137167
H 10.649636 8.244299 38.430123
O 8.869738 11.585356 36.217925
H -0.482903 11.820140 37.957496
H 0.815482 12.260776 34.496646
O 1.297467 12.182009 35.378403
H -1.800740 13.358964 37.244039
H 0.171214 13.259046 38.073249
O -0.331420 12.651940 37.437972
H 0.623051 12.386889 36.121453
H 2.122111 15.401693 37.300547
O 6.166435 15.317030 37.835800
H 3.758253 13.581348 36.924449
H 6.688637 15.180707 37.027445
H 4.615982 14.248381 34.562417
O 4.038516 12.913404 35.268067
H 5.196150 15.026271 37.677228
H 4.530046 12.063493 35.084503
H 3.377421 13.701870 38.527585
O 3.510011 14.214163 37.668023
H 3.045011 12.600887 35.304826
H 6.582553 15.304206 34.786060
O 7.497405 15.288040 35.311817
H 9.644740 11.957071 36.809802
H 8.064516 14.009039 34.412117
H 10.966874 11.960110 38.542265
O 11.382373 12.384276 37.774049
H 8.672879 12.222304 35.501264
O -0.115606 9.808893 42.993577
H 0.384957 9.305899 41.347914
H -1.360848 10.942696 42.702415
O 0.792537 9.284991 40.461089
H 0.713461 10.334739 43.363675
H 0.705729 8.325072 40.171151
H -0.248692 9.256365 43.753521
O -2.170670 11.511512 42.478772
O 2.103134 11.313499 43.935628
H -1.709353 10.336805 39.183834
H -0.129107 9.906501 39.261198
H 2.429090 10.365432 41.071375
O 3.096657 10.991500 41.458075
H 3.984152 10.524486 41.599520
O 5.673386 9.888572 41.531361
H 5.781720 8.933758 41.155204
H 5.995294 9.845906 42.449644
H 2.581180 11.311858 43.077057
H 6.899228 10.859248 40.562628
O 7.281467 11.514004 39.947566
H 10.041836 10.532509 43.223453
O 10.049321 11.167998 39.819986
H 8.281298 11.316355 39.863794
H 10.384680 10.265331 39.697591
H 9.998277 9.061391 43.884829
O 9.588687 9.940780 43.899801
H 10.239821 11.377801 40.765649
H 11.001991 7.990857 39.949138
O 11.011389 8.669133 39.285316
O 0.626411 14.174718 39.632927