18432
Timestep: 26000000
H -1.698791 2.452233 4.461983
H 0.865063 3.143348 5.079033
H -1.435213 2.788478 0.846046
H -2.113241 3.473644 2.553804
H -0.792920 1.257762 0.645094
H 3.179070 3.268753 4.333391
H 3.906905 1.344641 3.230421
O 3.997983 2.295645 2.945429
H 3.656061 2.287935 2.015091
H 5.644529 3.106252 2.848928
O 6.601943 3.472867 2.836299
O 2.646144 3.653638 5.084399
O 3.337058 2.152558 0.404588
H 6.268291 0.612058 0.405366
H 7.201122 2.738738 3.106689
H 7.171869 0.423499 1.679529
H 8.667143 1.666609 4.560224
O 8.142110 0.882037 3.070681
H 9.028192 0.812052 2.584359
H 10.268291 1.384323 1.007795
O 10.336360 0.622991 1.650616
H 7.987575 0.021884 3.543308
H 0.774941 6.576275 2.107907
O 1.315462 6.360133 1.313657
H 1.361085 5.393354 1.167291
H 0.015299 7.262669 4.197425
O -0.247229 7.341055 3.243103
O -1.883116 4.034750 1.811217
H 6.538656 4.802618 4.044727
H 6.503665 6.367104 4.196692
O 6.498095 5.552137 4.748267
H 2.416446 7.133657 0.472919
H 7.359538 4.170885 1.285646
O 7.918381 4.350922 0.500163
H 8.302719 5.309643 0.617938
O -1.086456 0.164222 9.643688
H -1.515568 1.055262 9.785754
O -0.076673 2.928350 5.339744
H -0.193168 1.189153 5.416382
H 1.624356 0.946121 7.653610
H -0.222758 3.494812 6.122006
H -0.347449 0.248378 8.996101
O 1.021431 0.154968 7.822156
H 0.245992 -0.032932 6.282427
O -0.208717 0.189874 5.413454
H 4.968392 0.704421 9.641535
H 2.948039 2.574862 6.324331
O 3.078800 1.909262 7.066260
H 3.518348 1.115555 6.616202
H 4.546644 2.177461 8.120488
O 5.322465 2.227580 8.817021
H 6.187677 1.849654 8.388613
H 5.874164 3.808281 9.308866
H 11.701346 2.027978 6.972093
O 11.268853 1.189318 6.520347
H 7.570327 0.507043 7.322629
O 8.935651 2.274557 5.333954
O 7.661124 1.494955 7.602104
H 10.493932 1.672968 9.199567
H 10.407861 1.538740 6.080765
H 8.385978 2.112209 6.142154
H 8.417312 1.633952 8.270061
O 9.688577 2.149769 9.496792
O 11.754733 0.063991 9.876254
H 11.806263 -0.050817 5.563737
O 1.867864 4.025939 9.803563
H -1.737115 4.260754 8.348863
H 0.506602 4.360106 8.015088
O -0.244979 4.640796 7.457536
H 0.067380 5.477835 7.045890
O 0.422078 7.064993 6.005909
H 7.075672 4.818258 9.023979
H 3.119630 4.556767 5.359748
H 2.709004 4.469418 9.434228
H 4.892166 5.786450 5.512917
O 3.920800 5.836844 5.873534
H 3.624558 6.818769 5.981809
O 6.199322 4.760374 9.532876
H 3.408930 6.939221 9.336802
H 3.829104 5.547160 7.542798
H 4.756140 5.317866 8.788387
O 3.780217 5.503363 8.492616
H 9.176482 6.663954 8.567403
O 9.758502 7.465849 8.835587
H 8.837429 4.826372 7.419706
H 9.094292 4.013986 5.494846
H 10.848736 5.696508 5.326120
O 11.800075 6.097217 5.232372
O 8.799906 4.823486 8.403920
H 8.208435 5.334552 5.378814
O 9.099411 5.008053 5.762448
H 11.160055 6.338305 8.958213
H 9.203259 3.991063 8.759869
H -0.612953 2.793241 13.495805
H -0.064308 1.473763 14.158466
O 0.157654 2.425526 14.005285
H 1.445654 2.411151 12.657032
H 1.438589 0.563205 11.546292
H 2.159786 2.774061 11.292135
O 2.116868 2.103282 12.013461
H 3.896948 1.647881 12.569325
O 4.704047 1.052486 12.661106
H 6.211135 2.061032 12.864572
H 4.869270 0.659775 11.752435
O 6.916356 2.798830 12.924285
H 4.786462 -0.076804 13.910070
H 7.180082 2.930808 13.881785
H 8.369101 2.128449 12.378431
O 9.278529 1.740990 12.121246
H 9.299850 0.833709 12.525792
H 10.899254 2.761606 13.031547
H 9.572296 1.907514 10.443002
O 11.246013 3.652244 13.382374
O -1.555392 3.924759 12.435292
H -0.788993 4.561010 12.198885
H 0.542150 6.341607 11.505320
O 0.648512 5.462586 11.941992
H 1.225369 5.699492 12.771278
H 2.144422 6.863954 14.594440
O 2.385117 6.064628 14.013375
H 1.588448 4.591215 10.563242
H 6.226999 4.399317 12.487962
H 3.053265 6.451848 13.371433
H 4.978293 6.648730 12.152558
H 6.263678 5.212235 11.125160
O 6.056939 5.314711 12.110829
O 4.262947 7.375846 12.238111
H 3.893629 7.487432 11.300632
H 11.767109 5.081401 12.184509
H 7.200278 6.090675 13.228785
H 10.647510 3.921280 14.120345
O 7.696734 6.506327 14.043929
H 8.949603 5.433727 14.817111
H 7.995001 7.450318 13.826903
H -0.412711 1.381143 18.472164
O 0.467031 1.894172 18.443181
H 0.429740 2.589108 17.751187
H 1.996796 1.070572 18.294947
H 0.265198 3.253485 15.576849
O -1.671683 0.389917 19.168174
O 0.474913 3.669535 16.479642
O 2.914106 0.661040 18.224874
H 3.604587 1.356093 18.521401
O 5.082591 2.609414 19.153682
H 6.829835 3.309364 16.009855
H 5.991007 2.166676 19.408305
H 5.395148 3.595863 17.624894
O 7.643347 1.107295 19.506663
H 8.487463 1.674539 19.566608
H 7.409324 0.868885 15.793992
H 7.798556 0.282997 18.912561
O 7.607681 2.849145 15.552929
H 8.421587 3.487340 15.643022
H 1.466609 4.096046 16.447749
H -0.656551 4.947008 17.060067
H -1.113611 6.508039 16.913520
H -0.269945 6.064261 18.938867
O -1.240096 5.676869 17.494527
H 1.249300 6.463588 19.597221
H 7.015141 6.369366 15.634991
H 3.279475 7.535063 19.028378
O 6.728350 6.451604 16.565777
O 5.445271 4.037379 16.752482
H 5.791918 4.984697 16.795550
O 2.730865 4.908634 16.343455
H 2.795182 5.360581 15.467085
H 3.660449 4.597397 16.517995
H 10.554069 6.368021 17.576356
O 11.370507 6.228186 16.961709
H 8.918662 6.042861 19.021860
O 9.008109 6.677467 18.268407
O 9.583547 4.791300 15.261058
H 7.597330 6.590277 17.102145
H 10.205622 5.360190 15.848176
H -1.262424 2.766075 21.166109
O -1.521745 0.783290 23.487575
H -1.088099 2.309286 24.094074
O 0.271926 3.497637 20.612514
H -1.811604 1.038356 19.921277
H -0.756883 0.122500 23.358605
H 1.439292 3.614634 21.849547
H -1.885866 1.570217 22.006802
O -0.969529 3.264387 24.407770
O -2.089941 2.147152 21.237287
H 0.333627 2.898561 19.811571
H -2.219946 0.273534 24.054847
H 2.817633 2.624150 23.244476
O 3.326049 1.888474 23.787071
H 5.182614 1.859265 23.759193
H 6.660674 2.619466 23.970225
O 6.227112 1.706884 23.838112
H 3.235911 0.263422 23.045084
H 7.029148 0.784635 22.524546
H 4.848062 3.260865 19.873088
O 7.612238 0.115204 22.047949
H 7.574434 0.420358 21.123216
O 10.208153 1.255005 22.718118
H 10.356387 2.067550 21.052096
H 9.275041 0.824605 22.501034
H 10.385415 2.604254 23.822514
H 10.821902 0.523480 23.004868
O 10.205228 2.461129 20.170080
O 10.323252 3.268215 24.566888
H 11.124614 2.418543 19.750228
O 2.178581 3.887260 22.520763
O 0.527056 5.456900 23.773452
H 0.105370 6.070742 23.127960
H -0.227343 6.841637 21.185373
H -0.079126 4.664189 23.948517
H 1.708391 4.572707 23.108463
O -0.496684 7.200303 22.071171
H 0.262160 4.446324 20.293464
O 0.293078 6.174563 19.774847
O 4.638735 6.983917 23.530119
H 3.469968 4.431038 21.547956
O 4.208210 4.706757 20.932263
H 5.792200 4.899353 21.462810
H 4.296869 6.304921 24.159956
H 5.274029 6.463649 22.993402
O 6.764634 5.132278 21.795188
H 3.876865 5.550724 20.504263
H 7.058514 4.670292 22.633380
O 2.970092 7.016262 19.806624
H 8.546194 3.825389 24.401833
H 7.402404 6.903208 22.081181
O 7.582310 4.085921 24.205002
O 8.928113 4.962312 20.204709
H 8.069652 4.856491 20.754463
H 10.789386 6.394190 22.701531
H 10.076121 6.030082 21.315274
O 10.452359 6.768509 21.861943
H 9.377202 4.079837 20.170546
H 11.099299 4.886384 24.271757
O 11.542199 5.796276 24.100709
H 8.920350 7.460712 22.318112
H -0.696571 2.457577 27.361575
H 1.688397 3.016720 26.447783
O -1.948818 1.680910 28.168688
O -0.077658 3.109267 26.881138
H -0.675998 3.244479 25.373476
H -1.889956 1.797278 29.167801
H -2.079018 0.680924 27.930128
O 2.676443 3.001526 26.178435
H 3.093004 2.122188 24.685498
H 3.519923 2.629940 27.585993
O 3.980262 2.398806 28.442401
H 3.737801 1.420263 28.580101
H 5.840467 2.360108 27.993973
O 6.752033 2.518090 27.552528
H 6.892672 1.691207 26.987061
H 6.922881 0.863260 25.151794
H 8.153979 -0.093905 25.699976
O 7.326572 0.423521 25.927944
H 10.263790 1.093696 29.025328
H 8.133109 2.047526 28.630677
H 10.823421 2.844272 25.342281
O 11.241625 0.845363 28.916087
H 11.443752 1.130829 28.009628
O 8.783030 1.960072 29.390880
H -0.898264 5.851843 28.152450
H 0.034791 3.966349 27.412093
O 0.094839 5.587325 28.175905
H 0.937683 6.377559 26.678777
H 1.154903 6.246529 25.180544
O 1.532603 6.745275 26.010297
H 0.210590 5.331526 29.121125
H 2.376938 7.258267 28.706918
H 3.030105 3.939990 26.068496
O 6.680082 5.175849 26.661085
H 6.651617 4.239164 26.972860
H 3.289787 6.203362 25.866893
O 3.976943 5.471140 25.657083
H 4.839005 5.610981 26.149452
H 10.029148 7.205928 26.553066
H 7.494157 5.674118 27.054980
H 9.421925 5.573580 28.252437
H 11.291074 6.433811 24.846537
O 8.986619 6.259675 27.662526
H 7.298556 4.582899 25.039876
H 11.171306 4.256064 29.259349
O 10.176256 4.467235 29.387213
H 8.541806 6.890918 28.296552
H 2.080156 2.264884 33.640268
H -0.788954 3.373497 30.770502
O -1.607074 2.774244 30.698393
H -1.656050 0.596962 33.436744
H -1.639443 2.144022 31.440729
O 2.804953 2.217051 32.993321
H 2.834898 1.227423 32.780543
H 3.150025 2.973315 31.497125
H 5.850256 0.539640 31.367398
H 3.613026 3.141880 30.000056
H 3.898354 3.329028 33.901526
H 6.379846 3.417606 31.949627
O 7.245001 1.757040 31.606365
H 7.746520 1.877578 30.797041
H 8.056882 1.735224 32.239810
H 10.705678 1.840305 32.269492
O 9.895260 1.718086 32.857715
H 9.876302 2.573804 33.365798
H 10.322240 0.351974 33.767958
H 9.229924 2.859992 29.530617
H 1.587435 4.214548 30.758106
H -0.202545 5.853555 33.326222
H 0.483346 5.189196 31.395159
O -0.193207 6.318005 32.461667
O 0.622685 4.474119 30.674124
H 0.445041 7.070924 32.578299
H -1.854934 7.179759 32.082205
O 3.390929 3.672213 30.815782
H 5.059077 4.195642 31.621497
H 5.170069 4.235343 33.637474
O 5.942346 4.313459 32.142558
H 6.643966 6.051054 31.719214
H 7.199378 7.447383 32.392409
O 7.282580 6.820726 31.633952
H 8.903136 6.043105 31.766763
H 9.453034 4.883718 32.691730
O 9.705734 5.453500 31.915522
H 10.123826 4.967087 30.242632
H 11.594292 5.407294 31.894279
O 9.441389 4.067828 34.159932
H -0.179998 1.234931 34.855301
O 0.928187 2.615620 35.008832
H 1.459572 1.580495 37.981145
H 1.429126 2.322756 35.817632
O 1.942076 1.184708 37.191783
O -0.848242 0.438962 34.915538
H 0.532322 3.538340 35.117200
H -1.865647 2.312356 38.445694
H -1.865284 1.074271 36.302901
H 2.891131 1.093776 37.554367
O 4.556883 1.327942 38.406759
H 5.047657 0.483823 38.550046
H 5.176482 1.862958 36.696737
H 5.161687 2.739301 35.328872
O 5.598680 1.981210 35.809193
H 7.147285 2.742315 36.024532
H 5.655217 0.224782 35.379272
H 11.018516 0.088948 35.852494
O 8.061664 3.226417 36.241675
H 8.527179 2.579564 36.805105
O 8.740669 1.046891 37.829186
H 9.520653 0.581309 37.419693
H 7.963554 0.381610 37.731585
H 8.845980 3.657251 34.857746
O 11.220811 0.235136 36.815814
O -0.115940 5.287258 35.001906
H 0.608745 5.908994 35.452080
H -0.983902 5.512253 35.513132
O 1.569495 7.146497 36.438971
H 1.097882 7.110239 37.264126
H 2.355521 6.520512 36.530810
O 0.605195 6.917271 38.908149
H 1.208149 6.131946 39.046082
H 4.095755 5.073073 35.954634
H 4.490107 6.134270 37.148425
O 5.791412 7.185323 37.946225
O 4.522960 3.976009 34.387667
O 3.807558 5.442947 36.817909
H 2.997246 4.812431 38.419272
H 6.583491 6.589543 37.831165
O 11.304913 5.573286 35.746163
H 8.633559 6.112747 37.320114
H 8.060258 4.607797 37.215936
H 10.467717 6.767531 36.546699
H 10.122926 4.635801 34.699850
O 7.953259 5.482721 37.725067
O 9.892616 7.398835 37.094299
O -0.064415 3.020340 42.820386
H 1.104143 1.724078 42.095742
H 1.382350 1.853237 40.132145
O 1.657007 1.055415 41.605527
H -0.958300 2.869010 42.334012
H -0.235556 2.644498 43.721316
O 1.153688 2.462970 39.407210
H 1.678328 3.316714 39.398772
O -1.629104 2.850520 39.261362
H -0.571554 2.821624 39.327710
H 2.547257 0.974406 42.094054
H 5.076178 2.093848 41.457642
O 5.132771 2.736176 40.711173
O 5.521610 0.660300 42.583804
H 6.011822 1.139266 43.377647
H 6.965017 2.984987 40.905502
H 4.631815 3.552990 41.012764
H 4.708773 1.915199 39.197401
H 6.201684 0.068141 42.125890
O 7.945440 3.160376 41.247541
H 8.501527 2.361130 40.926221
O 9.208266 0.854119 40.526098
H 10.848174 0.349870 40.839911
H 8.966873 0.967429 39.586873
H 8.119495 3.673858 42.861475
O 11.798894 -0.044029 41.091159
H 8.570946 0.119670 40.805049
O -0.241182 5.882360 42.560001
H -0.220187 4.908426 42.646311
H -0.862486 6.037602 41.796247
O -1.843897 6.934391 40.423900
H 1.578710 6.172790 42.828301
H -0.295204 6.755486 39.299599
O 2.525644 6.231732 43.210149
H 2.528052 5.643467 43.964707
H 3.679295 5.564543 41.984930
O 4.148579 5.205399 41.190389
H 4.820159 5.928278 40.915512
H 3.068134 5.033208 39.955858
O 6.028980 7.076549 40.600303
H 6.946115 6.645856 40.743416
H 5.925132 7.088105 39.622433
O 2.396999 4.843877 39.188962
H 7.187452 7.450930 43.931882
O 8.129621 3.974573 43.802796
H 10.962598 6.709384 41.931910
O 11.040737 6.306144 41.025451
H 8.233187 4.814938 40.716120
O 8.386371 5.734735 40.386536
H 10.078878 5.965478 40.774727
H 9.464398 7.002933 43.678365
H 8.258446 5.623791 39.392486
H 7.824659 4.906378 43.786791
O 10.294056 7.457778 43.333823
H 1.800245 -0.024199 46.574262
H 0.380403 1.155213 45.350207
H -0.397977 2.409133 45.920156
O -0.480139 1.651721 45.229676
O 2.063386 0.452814 45.733335
H -1.499378 0.336959 45.893093
H 1.165670 0.496266 48.428095
H 3.306883 3.056378 48.606651
H 3.560877 1.543699 45.763948
O 4.091817 2.419913 45.780070
H 4.284662 3.085494 47.371189
H 4.977731 2.206180 45.341535
O 6.635359 1.826003 44.684578
O 4.173669 3.461012 48.307097
H 7.171531 2.657240 44.513879
H 2.795468 3.586686 45.207560
H 7.197859 1.167081 45.166471
H 11.231499 0.592762 47.380792
H 9.159436 0.989741 48.277066
O 11.755464 3.801806 46.956692
O 9.581522 0.163460 47.862569
H -2.239908 6.330662 45.141271
H -1.029706 6.028003 44.105375
O -0.066964 4.330683 46.589976
H -0.279458 4.275923 47.524662
H 1.465636 4.414138 45.686194
H -0.692504 4.983761 46.165002
O -1.245851 6.039620 45.050246
O 2.315614 4.470298 45.117351
H 0.433233 7.295259 48.449978
H 2.380808 6.833321 47.253102
H 6.915174 6.478262 47.583560
H 3.318348 5.363907 46.312014
H 3.891491 5.160178 47.695012
O 3.758053 5.900311 47.057551
O 6.404992 6.785691 46.776913
H 5.444259 6.420237 46.838139
H 7.184245 6.607030 45.153725
H 10.903754 4.471759 48.360932
O 7.568640 6.618097 44.254774
H 9.790118 4.328280 44.273456
H 11.377201 3.949058 46.060534
H 11.407354 4.071295 44.037747
H 11.011259 7.518004 44.071503
O 10.738363 4.541218 44.627019
H 11.303450 6.250136 45.527541
H -1.373967 2.263245 52.117078
H 1.943938 2.227415 49.994072
H 1.886417 0.816234 52.351622
O 1.594293 2.228974 49.037386
H 0.834476 2.869304 49.048910
O 1.458509 0.074630 52.868377
H -1.482805 0.156715 51.497368
O -2.213249 1.718697 51.864550
O 2.853766 1.904664 51.471760
H 2.930645 2.745073 52.052826
H 3.787531 1.532809 51.388244
O 5.349749 0.533923 51.626280
H 6.270541 1.883552 52.108348
H 6.836867 3.224772 51.385392
O 6.900604 2.685959 52.194658
H 4.843786 -0.077992 52.229636
H 8.241794 1.508945 51.821366
H 8.829722 1.708070 50.033415
H 9.795293 0.882153 51.654158
O 8.768235 0.762972 51.379980
O 11.501864 0.740099 51.743494
O 8.813295 2.363153 49.292883
H 7.870732 2.776030 49.388563
H 7.415681 3.359801 53.645633
H 11.715860 1.424855 52.479429
H -0.472758 5.375103 49.395547
O -0.244793 3.738829 51.987526
H 0.713926 3.943322 52.256175
H -0.418848 4.034725 51.040443
H -1.001049 4.861646 53.121662
H -1.541907 4.138357 49.450720
O -1.448022 5.612033 53.672929
H -0.221363 6.880035 53.663442
O -0.552405 4.392750 49.413822
O 2.344282 4.232830 52.825193
H 2.237705 7.198163 53.272864
O -0.391671 7.192477 49.019868
H 5.638734 3.713485 49.251386
O 6.497476 3.871809 49.804632
H 2.669692 5.170853 52.644134
O 3.183295 7.052398 52.928206
H 6.936102 4.733074 49.512295
O 7.840354 6.579821 53.643189
H 9.890872 3.852653 49.359812
H 9.676032 7.219441 51.249554
O 10.381983 4.696198 49.155066
H 8.123433 6.609842 49.786357
H 11.041299 5.661455 50.568735
O 11.340298 6.235279 51.358329
H 8.195440 6.850197 52.747031
O 7.912755 6.073921 48.970049
H 8.825953 5.570596 48.871459
O 8.674681 7.425249 51.251533
O -0.865957 2.178733 58.489006
O 1.705960 -0.008495 57.467544
H 0.624598 3.367695 58.400251
H -1.176797 2.101778 56.855459
O -1.190501 2.262426 55.892197
H 1.344310 0.943363 54.346531
H 0.416885 1.700403 55.325332
O 1.380094 1.353635 55.235938
H 2.130347 3.049334 55.364617
H 1.401595 0.352808 56.569524
H 2.284583 0.736430 57.864757
H -1.969010 1.747410 55.456223
O 5.481500 1.454203 57.222466
H 5.453316 0.701285 56.560328
H 5.789725 2.263007 56.799936
H 4.161743 1.953958 58.074916
H 2.830538 2.949352 58.275704
O 11.737856 2.345905 53.965265
H 9.603687 3.305928 58.453912
H 8.916187 2.790337 55.098063
H 8.997251 1.111666 55.247636
H 9.900323 2.420304 57.225201
O 9.450109 2.015334 55.500746
H 10.942796 2.205104 54.530093
O 10.307276 2.673327 58.111581
H 0.061322 7.276793 56.777006
O 1.403344 4.010488 58.125666
O -2.045267 4.835788 56.157354
H 2.244057 4.254046 53.802830
H -0.060134 6.604829 58.241774
H 1.257766 4.121818 57.146748
H -1.619675 3.932451 56.088504
O 2.079678 4.070140 55.400526
H -1.636901 5.308945 54.567340
H -1.430594 5.499963 56.655019
O -0.553018 6.794434 57.389848
O 6.341480 4.044594 56.565857
H 6.926763 4.296358 57.367208
H 3.744495 6.405379 57.171599
H 5.613419 4.736809 56.634475
O 4.219236 5.644610 56.591174
H 4.464342 6.155792 55.806294
H 2.929593 4.445437 55.821484
H 6.214061 7.011432 54.242819
O 5.331635 7.290367 54.648645
H 4.553113 7.240658 53.951588
O 8.476943 6.974929 58.346708
H 7.891322 5.591776 53.690854
O 7.901392 3.891613 54.378774
H 10.574828 6.662120 55.821019
H 7.283480 3.973227 55.126290
H 9.132996 6.999264 55.134903
O 9.746351 7.210636 55.914080
H 8.870620 6.894464 57.447582
H 7.457197 7.070068 58.227981
O 0.075267 9.929067 2.203553
H -0.519551 9.730841 1.355095
H 1.077495 10.010693 1.980177
H 0.076775 8.252702 2.960509
H -1.014764 10.888222 3.169207
H -2.022769 7.563250 2.832609
O 2.831967 9.951751 1.590094
H 3.043269 9.173825 0.986820
O 4.140028 9.536222 3.992662
H 3.318938 9.724849 2.416913
H 4.405555 10.510662 4.153002
H 5.018629 9.026837 3.838113
O 5.870789 7.842185 0.582729
O 6.245508 7.927847 3.363954
H 6.066783 8.835030 0.469676
H 6.410843 11.188252 0.696379
H 6.110663 7.890061 2.389250
H 7.126358 8.429406 3.506293
H 8.373376 10.014240 4.481102
O 8.597780 9.062667 4.359698
H 9.413937 9.081071 3.788771
H 10.345473 9.984218 2.099608
O 10.774648 9.794797 2.937788
H 11.041468 10.690362 3.324181
O 9.299288 9.696967 0.486601
H 9.144135 8.707852 0.425927
O -1.712222 11.395283 3.688056
O 1.189106 14.416435 3.873370
H -0.683261 14.190327 3.580306
H 1.535275 14.089012 3.008145
H 1.818747 14.458807 0.798232
H 1.838870 14.064066 4.523722
O 2.287238 13.965136 1.552596
H -1.832865 13.099286 3.457627
O -1.681875 14.078251 3.406143
H 3.627315 15.056299 1.875900
H 2.624637 13.162752 1.030306
H 4.480937 12.888647 4.664902
O 5.040400 12.202069 4.213617
H 5.096824 12.450678 3.269531
O 6.094236 12.658198 1.624676
H 5.905161 13.315550 0.935342
H 6.781455 11.717080 4.533720
H 6.972499 13.002129 2.028867
H 3.543550 11.319649 0.570606
O 10.458547 14.694025 1.763628
H 11.346430 14.432699 2.219249
H 7.664499 14.378037 3.337858
H 8.258727 12.371436 4.365360
O 8.203653 13.592345 2.987927
H 9.051538 14.014845 2.653302
H 10.461754 14.309617 0.838606
O 7.774029 11.574250 4.776500
O 11.564026 12.201396 4.472518
H -0.369501 7.561782 6.406800
O -1.767308 8.582447 9.576526
H -1.603018 8.571625 7.936460
O -1.698731 8.533716 6.959056
H -1.436062 10.160189 6.507369
O -1.320373 11.160126 6.333294
H -1.403974 11.168381 5.354614
H 1.242960 7.648178 6.237730
H -2.232557 7.698866 9.827599
H -0.067414 8.133472 10.035837
H 3.306961 8.819683 5.400569
O 2.980308 8.331882 6.171033
H 3.558289 8.502166 9.424625
H 3.476325 8.768812 6.967669
O 4.267279 9.647930 8.461770
H 3.856163 10.572784 8.335128
H 5.237857 9.905894 8.659765
O 7.002652 10.837106 9.542305
O 3.163864 7.739281 9.909835
H 7.620339 10.239553 10.033684
H 7.568583 11.117204 8.800958
H 9.662586 9.022985 6.058539
H 9.845417 10.076484 7.146517
O 10.290062 9.254290 6.789462
H 9.822409 7.974989 8.010316
H -0.137058 12.091950 7.328565
H 0.097623 12.281678 8.929986
O 0.399170 12.596321 8.072997
H 0.533053 14.445722 8.238575
H 2.134797 12.237777 8.023236
O 4.318584 14.092375 9.391975
H 3.206230 13.262355 6.306522
O 3.384966 13.872015 5.578363
O 3.114055 12.193081 7.708202
H 3.677270 12.760980 8.357942
H 3.688127 14.772717 5.961066
H 5.255802 13.885527 9.800129
H 8.301650 11.551566 6.366526
H 10.157130 14.460825 6.624699
O 8.706691 15.007018 9.236407
H 9.634234 14.605918 9.458555
H 10.915849 13.190206 5.995392
O 11.464229 14.127594 9.401985
H 7.998826 14.428785 9.651080
O 10.591535 13.597420 6.835207
H 9.247926 12.324356 7.345210
H 11.364769 13.939761 8.445707
O 8.597611 11.552666 7.324841
H -0.000036 9.080093 11.805106
O -0.312266 9.780917 12.448503
H -1.011968 9.223902 12.909968
H 0.962818 10.234172 13.521297
O 1.644068 10.421882 14.251993
O 0.596937 7.956340 10.748550
H -1.861433 8.045609 14.606545
H 1.595007 7.997367 10.368972
H 2.507406 10.832643 13.857574
H 4.565265 10.800909 13.270282
H 5.031961 8.662912 13.123269
O 5.451572 9.420233 13.707419
H 6.447915 9.412223 13.594977
O 8.329778 9.052272 13.311371
H 8.630577 9.048971 12.376335
H 9.876977 9.812345 11.000438
H 9.090129 9.491403 13.875732
O 8.987013 9.301798 10.765079
O 10.673894 10.027263 14.461395
H 11.139240 10.157315 12.719539
O 11.205847 10.516471 11.812206
H 9.191277 8.552854 10.138094
H -0.194805 11.277521 11.214263
O -0.014820 12.127963 10.723641
H -0.910742 13.577977 11.503632
H 0.972398 12.273974 11.015803
O -1.478299 14.413561 11.569339
H -1.802221 14.545447 12.499369
O 3.896385 11.571926 13.236177
O 2.617335 12.876969 11.198782
H 2.558638 13.765136 11.753716
H 3.145851 12.293478 11.826756
H 4.327360 12.356517 13.688912
H 6.122026 14.293475 13.487832
O 4.917706 13.708334 14.547531
H 6.827809 13.783296 11.352546
O 6.851156 14.477211 12.865620
H 4.145935 14.347465 14.758097
H 6.903192 12.491583 10.260372
O 6.854193 13.494333 10.377062
H 3.641266 13.893782 10.054985
H 11.156454 11.522828 11.835603
H 8.328541 13.862721 13.520889
O 9.291974 13.640098 13.840231
H 9.821565 13.437714 13.044118
O 11.268797 13.230194 11.973012
H 11.379452 13.543186 11.063934
H 1.840580 9.036742 15.086983
H -1.910149 10.531879 17.155340
O 1.726662 8.180002 15.545305
H -0.995975 8.764960 16.630263
H 0.006050 10.474098 18.906159
O -0.995963 10.235640 17.442089
H -0.300301 10.781221 16.957344
O -0.957153 7.985872 15.981220
H 0.013673 7.979208 15.739750
H 2.235461 8.320204 16.407533
H 1.532271 10.776207 19.565270
O 0.538335 10.910417 19.679341
H 1.190771 11.372538 15.479772
H 6.012891 8.068599 16.442627
H 5.404992 9.023168 15.345739
O 3.189050 10.962267 19.318387
O 3.301533 8.754382 17.732913
H 3.428226 9.537689 18.338305
H 4.193359 8.746189 17.268247
O 5.581410 8.954382 16.324947
H 6.897116 10.141479 16.669489
H 10.453090 10.826712 15.066206
H 11.195158 9.432461 15.064343
O 7.600762 10.747287 17.065014
O 11.710629 10.066456 18.832304
H 8.025098 10.226468 17.820387
O 9.003889 9.384770 18.946491
H 9.958997 9.752118 18.893297
H 8.928113 7.583549 18.631515
O 1.089371 15.029457 18.224467
H 0.253941 14.685710 16.739096
H 1.800183 14.765379 15.282708
H -0.761113 14.757920 15.446540
H 0.544591 14.529244 18.895043
H 0.357401 12.692927 15.961840
O 0.093089 14.399987 15.808717
O 0.836001 11.888710 16.278329
H 2.332789 12.675502 16.999772
H -2.230018 13.249576 19.300752
H 2.741879 13.894515 17.954828
H 5.071453 12.924294 17.296881
H 3.213723 11.836860 18.839753
O 3.117301 13.092438 17.502093
H 5.278698 13.429643 15.399690
H 6.515478 12.213075 17.142012
O 6.061102 13.090175 17.102669
H 10.592042 13.218026 17.090331
H 9.034774 14.467917 17.767018
H 9.443415 12.553460 15.217001
O 10.804632 13.875194 17.851349
H 7.389859 14.330467 17.362879
O 8.151223 14.994544 17.623730
H 11.312451 13.436552 18.577098
O 9.716423 12.023470 15.991114
H 8.877427 11.594916 16.322096
H -0.192909 10.324297 22.540377
O 0.505533 9.763247 22.085314
H 0.455505 10.115187 21.188399
H -0.108132 8.154933 22.075594
O -1.994189 11.262725 22.673945
H 2.242999 8.984403 22.190655
H 4.283030 10.018887 21.724418
O 3.205909 8.770463 21.987305
O 4.803226 10.839674 21.464673
H 5.773973 10.658323 21.257540
H 3.523298 8.020418 22.583502
H 3.850537 11.059607 20.063459
H 4.720024 11.192899 23.282189
O 4.744101 11.345146 24.251562
H 3.022128 7.736408 20.510257
H 7.565996 9.253862 21.607029
O 7.536630 10.186847 21.257482
H 8.151110 10.696905 21.863049
H 10.450053 10.909622 23.111257
O 9.477787 11.169359 23.203212
O 7.918325 7.718248 22.405295
H 8.523635 9.731391 19.742197
H 11.815039 7.893852 21.246250
H -1.694246 12.237349 22.583037
H -1.542532 14.682897 22.626105
O -1.036164 13.832455 22.510346
H -0.627568 13.652021 20.839201
H -0.461738 13.833678 23.333870
O -0.521684 13.508518 19.882982
H -0.062565 12.617477 19.784508
H 5.986450 12.755110 24.268149
O 6.547600 13.629704 24.403347
H 6.316671 14.810258 23.003413
H 9.479362 12.105891 23.583488
O 9.429744 13.658319 24.494429
H 10.383615 14.910167 23.710713
O -0.645823 10.366975 28.536510
H 0.543044 9.731880 27.421405
H 1.114416 8.801035 26.256365
O 1.374035 9.536955 26.877005
H -1.313301 9.664011 28.914283
H -1.218224 10.911762 27.953466
H 1.850391 11.013933 25.820100
H 5.160618 10.486449 24.598839
H 5.433120 8.266336 24.599887
H 2.449800 8.613080 27.935948
O 2.925183 8.095013 28.636031
H 6.739038 8.175111 28.737531
H 4.518910 8.245364 28.057876
O 5.421475 8.539158 27.750058
H 5.343842 8.570830 26.769045
H 5.602900 10.323075 27.934376
O 5.790118 9.010573 25.193465
H 6.782242 9.239310 25.093070
O 5.757434 11.291217 28.199475
H 8.916524 10.351934 24.608966
H 8.700615 11.210019 28.283225
H 8.693358 10.433866 26.119072
O 8.612013 9.799321 25.361254
H 9.767334 8.307975 25.461241
O 10.486675 7.732984 25.864797
O 7.607962 8.001831 29.295316
O 1.851336 13.971617 29.302417
H 0.409105 15.122517 29.034175
O 0.548945 13.872932 24.642140
H -2.080221 12.616254 26.649096
H 1.135697 13.054162 24.851076
H -1.158300 14.559754 27.345512
H -0.044242 14.025607 25.444654
O -1.526696 14.218697 26.474148
O 2.279475 11.837472 25.470553
H -1.981242 15.039362 26.109410
H 2.524963 13.666879 28.625439
H 4.985719 11.812647 27.846728
H 6.283143 13.971801 25.260103
H 4.430307 13.673299 27.212352
O 3.715749 13.043217 27.536931
H 3.098990 11.572721 24.973063
H 3.187801 12.649883 26.724057
H 6.937227 14.526370 27.400860
O 6.038656 14.589103 26.909946
H 11.439083 14.737315 27.481059
H 8.403642 13.620471 24.609431
H 8.815264 13.680392 27.989026
H 8.293718 14.733952 29.098543
H 9.929463 13.716833 25.365619
H 7.439364 11.746918 27.581570
O 8.520879 14.628418 28.167466
O 11.676481 14.048413 26.793954
O 8.453822 11.828973 27.532915
H -0.432327 9.196387 33.552968
O 1.251769 8.640411 32.793696
H 1.818061 9.001095 32.082904
H 1.794242 8.776700 33.669484
O -1.293151 9.519957 33.869516
H 1.667375 11.149548 30.667605
H 0.277776 11.231480 29.824176
H -1.924921 9.133715 33.175253
H 3.071082 9.263461 30.098297
O 2.948833 9.906077 30.878579
H 3.874952 10.300452 31.078204
H 6.439533 9.480581 33.896812
H 6.351099 11.166913 31.189772
O 7.250345 9.004397 33.556227
O 9.249558 10.253738 29.598944
H 7.619776 9.678930 32.908931
H 8.624445 10.901123 31.097410
O 8.015816 11.134018 31.869544
H 7.450615 7.556096 30.155972
H 10.240163 10.021638 29.493020
H 8.732062 9.371929 29.548543
H -0.744776 11.382810 33.174962
O -0.793899 14.656728 33.307075
O 0.847421 11.716714 30.537355
H 0.187790 11.972659 32.072893
H -0.542172 13.670914 33.191141
O -0.032929 12.071345 33.027426
H 1.541081 13.159451 29.804214
H -1.299142 14.966785 32.506422
H 5.476606 11.508398 29.901349
O 5.421531 11.430135 30.868336
H 5.386484 13.056730 31.319907
H 5.425076 14.112247 32.529353
O 5.382265 14.035634 31.558758
O 5.300751 14.812582 34.150155
H 7.006759 14.500751 30.937652
H 2.673512 15.153945 30.252817
H 4.162081 15.075009 31.034903
O 7.915174 14.939026 30.755370
H 8.530442 14.681430 31.505913
H 8.337204 11.951687 32.327517
H 10.099861 13.512737 33.417072
O 9.212598 13.778343 33.049134
H 8.753214 14.155597 33.831570
O -2.162580 8.804825 36.301038
H -1.786442 9.200912 35.462731
H -1.650143 9.262422 37.061416
H 2.161198 10.198770 35.374500
H 2.109589 8.580430 35.688254
H -0.585427 11.463214 37.981378
O -1.046869 9.948327 38.588807
H -0.124344 9.820966 39.051145
O 2.557130 9.293850 35.149151
H 6.130521 8.137997 37.676470
H 4.428507 9.806903 34.907099
O 5.286574 10.326865 35.042588
H 5.759797 10.050742 35.917270
O 6.830791 9.709379 37.158726
H 6.900210 10.311641 37.993483
H 10.927213 9.142398 34.548298
H 9.718223 8.175906 36.535874
H 8.574040 9.432828 34.803736
H 7.745789 9.580978 36.851607
H 9.389128 10.564896 35.650308
O 9.298275 9.545271 35.472392
H 10.866007 7.916658 38.403325
H -1.945384 12.995770 37.146388
H 0.745221 12.017049 34.634608
O 1.343185 11.933161 35.442070
H -0.076808 12.938662 38.417642
O -0.398247 12.375838 37.631540
H 0.741199 12.195832 36.156878
H -1.779020 15.116158 34.578853
H 3.123743 12.555538 35.515925
H 4.825334 14.133647 34.728892
O 4.071622 14.357920 37.898327
H 3.982850 13.605002 37.219778
O 4.096093 12.833251 35.586754
H 4.664612 11.995588 35.398711
H 5.714680 15.005306 37.645217
H 3.795238 14.021938 38.786337
H 11.355037 11.540499 38.352575
H 8.936326 12.861561 36.259891
O 9.621914 12.298614 35.862155
H 10.397510 12.259177 36.505086
O 0.289044 9.582507 42.935912
H 0.830010 9.103144 41.300153
H -1.206219 10.648479 42.967049
O 1.267909 9.220111 40.447238
H 1.130994 10.147288 43.078443
H 1.270992 8.288593 39.985249
H 0.229796 9.162881 43.813388
H -1.721246 9.931207 39.323403
O -2.072873 11.120200 42.709516
H 2.749446 10.145453 40.556653
O 3.464286 10.791738 40.933787
H 4.343730 10.315432 40.959802
O 6.068752 9.760434 41.135565
H 5.972049 8.779818 40.946416
H 6.278417 9.741785 42.086547
O 6.802719 9.219255 43.712877
H 6.983863 10.743496 40.104384
H 3.062953 11.117876 42.753864
O 2.638510 11.050374 43.621678
H 9.857287 10.602805 43.187800
H 9.783255 9.081743 43.617313
O 9.441558 10.002745 43.855932
H 7.762834 9.607820 43.743548
O 10.190995 10.793572 39.600724
H 8.418775 10.988008 39.371010
H 10.616288 9.875139 39.527276
H 11.164780 7.566674 39.871702
O 7.406399 11.226528 39.366762
H 10.378777 11.228546 40.473951
O 11.289836 8.289449 39.212824