18432
Timestep: 17000000
H 0.543609 3.266943 5.122962
H -1.517318 1.108489 0.659193
H 1.856498 2.680361 0.846825
O 2.250760 3.671434 5.047582
H -2.071531 2.896825 4.486729
H -2.268803 2.490769 0.706101
H 2.834175 3.206965 4.405600
H 3.932281 1.296693 3.614337
O 3.842539 2.238204 3.359111
H 3.309504 2.142344 2.503685
H 5.524443 3.029177 3.202503
O 2.462450 1.909132 1.051732
O 6.367230 3.596761 3.175266
H 6.918044 3.136571 3.889135
H 8.442871 1.762128 4.502512
O 9.246375 0.451727 3.961144
H 9.696723 0.527763 3.089134
H 10.290489 1.235218 0.904306
O 10.482390 0.494247 1.548410
O 8.014310 2.459655 5.112100
H 1.070136 6.905175 0.573694
H -0.207387 6.068131 2.204708
O -0.189743 6.041596 1.243631
H -0.197566 7.154696 4.512202
H 0.078010 5.084167 0.950470
O -0.609364 7.265642 3.579894
H 6.294251 5.031219 4.244303
O 6.337203 5.771854 4.938682
H 6.213483 6.659567 4.503864
H 5.243082 7.476836 0.433701
H 7.286439 4.061455 1.665330
H 8.042757 5.165234 0.765883
O 7.781262 4.191100 0.819030
H 7.464456 7.319067 0.664482
O 8.399186 6.847410 0.500390
H 0.269207 0.305612 6.379970
O 0.992534 0.468262 8.008543
O -0.423355 2.900046 5.328932
H -0.293539 1.284865 5.393455
H -0.424433 0.540496 9.109035
H 1.689611 1.189923 7.872011
H -0.605594 3.431497 6.175387
O -0.242956 0.277150 5.543976
O -1.166048 0.262693 9.746898
H -1.794357 0.985324 9.990601
H 2.811361 2.576592 6.372136
O 3.159990 1.921052 6.996886
H 3.648097 1.178473 6.535649
H 4.631819 2.301660 8.057980
H 4.801877 0.744960 9.432405
O 5.359859 2.212280 8.752649
H 6.236680 2.005536 8.207044
H 5.842831 3.754836 9.390860
H 10.211358 0.216826 5.424196
H 10.631566 0.909037 6.775464
H 7.880092 1.988708 5.955225
H 7.527727 0.470131 7.371318
O 7.715452 1.471437 7.590360
H 8.504111 1.616951 8.252478
H 10.517102 2.660849 8.796167
O 9.635991 2.407612 9.235702
H -0.449798 7.668714 6.632724
O 1.390527 3.964881 9.696359
H -1.885846 4.388455 8.351061
H 0.303992 4.415926 8.246443
O -0.386753 4.581226 7.533670
H -0.095886 5.464934 7.187264
O 0.301519 7.079999 6.354555
H 2.240758 4.408199 9.335156
H 1.164727 7.613822 6.371498
H 2.775453 4.497280 5.342202
H 4.727826 5.724572 5.713187
H 6.838969 4.966308 9.239358
H 4.454479 5.345578 8.909025
O 5.968131 4.744735 9.662995
H 3.291668 7.033665 9.349721
H 3.516080 6.744533 6.138344
O 3.517548 5.593858 8.597143
H 3.572804 5.560012 7.611423
O 3.719439 5.775625 6.003228
H 7.897645 5.232254 5.607420
O 8.510884 5.134334 8.553451
O 9.723476 7.509906 8.944245
H 11.185597 6.628086 8.915523
H 8.663389 5.049918 7.542896
O 11.305423 5.938517 5.442538
O 8.755445 4.877124 5.961288
H 8.752680 3.926884 5.696424
H 9.144498 6.686279 8.744989
H 10.346197 5.607935 5.558279
H 9.044539 4.366859 8.894460
H -0.448065 2.950555 13.575527
H 0.299149 1.644164 14.271241
O 0.395641 2.606911 14.065196
H 1.507739 2.612644 12.665529
H 1.386672 0.663979 11.692575
H 1.941618 2.813857 11.180625
O 2.102510 2.249519 11.954555
O -1.545449 3.608234 12.511590
H 3.777010 1.532779 12.378889
O 4.601735 1.007195 12.441613
H 6.266086 1.817594 12.668489
H 4.594680 0.442215 11.618826
H 4.637576 0.088406 13.835767
O 7.066316 2.390374 12.936852
H 7.197487 2.368093 13.914506
H 8.659325 2.012841 12.206962
O 9.575994 1.665748 11.870652
H 10.914959 2.673405 12.699184
H 9.673807 0.837891 12.365427
O 11.427675 3.463693 13.102976
H 9.823491 2.211993 10.170999
H 1.119285 4.605658 10.373679
H -0.861348 4.265755 12.143541
H 0.230516 6.306680 11.349012
O 0.348174 5.387169 11.682769
H 1.014823 5.513255 12.421943
H 1.924335 6.826444 14.389437
O 2.146529 6.011423 13.805362
H -2.270028 4.263633 12.800901
H 6.454771 4.089170 12.617601
H 2.986262 6.250015 13.330606
H 5.009639 6.488533 12.388114
H 6.194575 4.897889 11.299691
O 6.215345 4.987703 12.266959
O 4.311174 7.212645 12.457918
H 3.927765 7.414426 11.559003
H 7.332946 5.881956 13.410506
H 10.799705 3.837742 13.775654
O 7.892057 6.344334 14.144457
H 8.147851 7.255373 13.842324
H 8.965352 5.234913 14.493301
O 9.580340 4.522819 14.924480
H -0.326044 1.512344 18.582750
O 0.596382 1.928717 18.515383
H 0.559147 2.682916 17.840501
H 0.354354 3.323480 15.726379
H 2.088693 1.227161 18.497570
O -1.896416 0.496246 19.267787
O 0.392486 3.789238 16.600518
O 2.971040 0.708656 18.539638
H 3.727623 1.424382 18.620698
O 5.129295 2.654718 19.041259
H 5.215651 3.517143 17.661669
H 6.000585 2.207384 19.260650
H 6.708928 3.122781 16.020563
H 4.965558 3.403831 19.690321
O 7.539071 1.166639 19.659510
H 7.383913 0.874024 15.768911
H 8.298155 3.105451 15.533563
H 7.603754 0.347639 19.063309
O 7.409538 2.570161 15.547315
O 0.140096 5.791830 19.615760
H 1.070198 6.128977 19.379600
H 1.299667 4.342866 16.535762
H -1.059035 4.911337 16.960327
H -1.309732 6.425633 16.965376
H -0.434542 5.748998 18.796860
O -1.554841 5.611695 17.447733
H 3.090916 7.283124 18.613793
O 2.871776 6.690802 19.361612
O 6.840662 6.403260 16.681694
O 2.786933 5.078965 16.248425
H 3.602210 4.545130 16.444026
O 5.387008 3.945748 16.786544
H 2.747463 5.306731 15.295141
H 5.691849 4.890064 16.911819
H 11.407525 7.544687 16.669393
H 8.856081 6.006423 19.338693
O 8.856363 6.565920 18.541088
H 10.391914 5.958628 17.722827
H 10.129687 5.078531 15.617177
H 8.856758 7.524088 18.779279
H 7.250259 6.279295 15.783069
O 11.036704 5.898210 16.997695
H 7.623113 6.353197 17.383442
O -1.523916 1.118006 23.890771
H -1.443854 2.624057 21.281236
O 0.249300 3.417212 20.738591
H -1.291061 2.702550 24.402953
H -0.713584 0.520355 23.728825
H 0.561902 2.831767 20.032724
H 1.449960 3.760942 21.718277
H -1.920243 1.584388 22.361304
O -1.419556 3.720274 24.536236
H -2.160361 1.118654 19.983635
O -2.239065 2.062176 21.555228
H -2.234773 0.596165 24.350673
H 2.971192 2.831247 23.331415
O 3.323219 2.236590 24.076798
H 4.978314 2.023214 23.942007
H 6.515954 2.663942 24.122347
O 6.005157 1.807887 23.959414
H 6.604567 0.941153 22.669936
H 3.343369 0.577888 23.329849
O 7.221248 0.321936 22.203013
H 7.151712 0.534153 21.259245
H 10.937197 2.191754 20.423286
O 9.975827 2.520587 20.602060
O 9.642652 1.453821 23.041061
H 9.883940 2.058435 21.458501
H 8.747600 0.998313 22.806758
H 10.321814 0.698032 23.298864
H 9.713034 2.624008 24.263927
H 8.471657 1.549057 19.895496
O -0.655296 7.118815 21.885155
O 0.477138 5.625338 23.862513
H 0.068703 6.159669 23.138832
H -0.330825 6.775158 21.016529
H -0.179245 4.834188 24.019992
H 1.741684 4.726800 22.924954
H 0.132098 4.311765 20.281591
H 2.960514 7.323774 20.129276
O 2.222731 4.042628 22.379002
H 3.670787 4.350202 21.196579
O 4.371340 4.676902 20.604149
H 5.367648 6.681695 23.146491
H 5.772561 5.124401 21.452931
O 6.553487 5.528922 22.001494
H 6.707291 5.019165 22.806294
H 4.202015 6.771613 24.315743
O 4.687470 7.238135 23.586317
H 3.940916 5.396833 20.054019
H 7.331423 7.113008 22.261676
H 9.498951 4.155536 20.553725
H 8.217895 5.052021 21.155381
O 9.098272 5.090451 20.685209
H 10.859421 6.496663 22.971257
H 10.012119 6.242618 21.625728
O 10.439608 6.988920 22.205392
O 11.230129 5.688758 24.480590
O 7.163960 4.283909 24.350557
H 8.156882 4.172279 24.516159
H -0.827551 2.838601 27.502795
H 1.332714 3.458357 26.445937
O -1.900958 1.766963 28.179593
H -1.110374 3.852828 25.459405
O -0.333449 3.586143 27.039586
H -1.834107 1.982197 29.143960
H -1.877705 0.756342 28.142283
H 2.920412 2.683399 24.882584
O 2.345068 3.483394 26.275694
H 3.059287 2.861658 27.718704
O 3.562193 2.534720 28.515961
H 3.372097 1.562688 28.577699
H 5.296137 2.680618 28.037375
H 6.288437 1.923014 26.947211
O 6.213031 2.689885 27.601263
H 6.890162 0.908414 25.058862
O 10.893511 0.860160 29.089823
H 9.062093 3.132653 29.130092
O 7.259798 0.459707 25.879734
O 11.465209 2.199504 26.836036
O 9.850526 3.334097 24.965849
H 7.658050 2.470469 28.534006
H 10.358049 2.876769 25.704036
H 11.152861 1.214716 28.237211
H 9.931464 1.188621 29.145120
O 8.413465 2.340091 29.190727
H 0.124468 5.507020 29.271207
H -0.367658 4.417319 27.630681
H -1.071435 6.221163 28.433102
O -0.074004 5.945565 28.424978
H 0.685215 6.502959 26.966649
H 0.727671 6.621240 25.330765
O 1.076458 7.021806 26.205194
H 2.686382 4.385203 26.031875
O 3.610394 5.993158 25.692315
H 6.288720 4.598812 27.063376
H 4.345885 6.141447 26.344395
H 6.798501 4.774228 25.157504
H 2.785240 6.528082 25.992940
O 6.346967 5.464238 26.593668
H 7.241963 5.901761 26.981271
O 8.633362 6.545137 27.879664
H 9.661503 7.455320 26.672175
O 10.054393 4.699831 29.326331
H 10.605715 4.946515 24.609463
H 8.239512 7.219247 28.562844
H 9.191965 5.874486 28.375251
H 11.045960 4.667824 29.126842
H 10.940414 6.472395 24.997298
H -1.002830 3.391416 30.708300
H 1.594530 2.334339 33.597919
O -1.834565 2.798355 30.642616
H -1.933007 0.892111 33.541113
H -1.911014 2.206247 31.407204
O 2.384318 2.161465 33.031252
H 2.428416 1.139517 32.955298
H 2.696158 3.116644 31.651372
H 5.947304 0.777045 31.312915
H 3.184818 3.227162 30.125212
H 3.418323 3.244106 34.104182
O 6.934186 2.184455 31.444166
O 2.836517 3.750190 30.919393
H 7.366078 2.360568 30.618710
H 7.764217 2.073045 32.047098
H 10.245392 2.160939 32.270667
O 9.419594 1.919340 32.816329
H 9.455491 2.619154 33.544536
H 9.822080 0.336984 33.494113
H 11.521312 1.951481 30.333229
O 11.618843 2.449796 31.204757
H 1.058328 4.277289 30.787039
H -0.375498 5.861368 33.591420
H -0.056885 5.200236 31.480954
O -0.431155 6.249037 32.701847
O 0.121736 4.628813 30.688977
H 0.248306 7.006219 32.790914
H -2.000404 7.478609 32.002652
H 5.975525 3.833696 31.877319
H 4.540101 4.358857 31.513447
H 4.530393 4.262374 33.679907
O 5.349869 4.593158 32.107444
H 6.073508 6.189010 31.760864
O 6.753234 6.974860 31.672666
H 6.641367 7.576474 32.453270
H 9.922320 4.912437 30.270679
H 8.518898 6.198362 31.989654
H 9.324998 5.224693 32.976767
O 9.428625 5.754573 32.137617
H 11.096758 5.487044 31.990525
H -2.267217 1.200974 36.516608
H -0.522963 1.669740 35.147985
O 0.865733 2.806063 35.241694
H 1.012097 1.749957 38.141584
H 1.106332 2.428151 36.121635
O 1.396290 1.210681 37.399044
O -1.206974 0.924148 35.188718
H 0.432791 3.668640 35.412344
H -0.577627 0.137305 35.306334
H 2.331009 1.154768 37.728798
O 4.285944 1.367448 38.070040
H 4.863794 0.540538 38.307534
H 5.040851 1.729082 36.564072
H 4.938692 2.583102 35.271229
O 5.500456 1.853855 35.692835
H 6.867359 2.812133 36.008314
H 5.452480 0.121025 35.346370
H 4.479821 2.007871 38.835150
H 7.732666 0.201367 37.703731
H 9.321724 0.434460 37.229265
O 7.775675 3.142226 36.302904
H 8.192722 2.393791 36.818161
O 8.521946 0.875827 37.637525
H 8.577372 3.758644 35.036230
H 0.719137 7.261363 37.274408
O -0.327280 5.293424 35.351709
H 0.308687 5.984350 35.675659
H -1.264178 5.523965 35.688947
O 1.245416 7.338383 36.439552
H 2.141387 6.885003 36.508427
O 0.329622 7.153718 39.031215
O 2.093914 4.935292 38.929614
H 0.927937 6.307535 39.041137
O 4.106968 3.927220 34.499851
O 5.559606 7.280802 37.508537
H 6.290074 6.577351 37.394577
O 3.352399 5.674142 36.479647
H 4.172892 6.230515 36.718243
H 3.602323 5.056715 35.775636
H 2.607691 5.036800 38.088897
H 8.019220 5.585709 38.969013
O 9.262066 4.109868 34.355544
H 10.433681 6.670508 36.629930
H 10.069858 4.450970 34.895404
O 7.630902 5.530726 37.393474
H 7.594046 4.639914 36.895160
O 9.701577 7.247915 37.026179
H 8.442871 6.083431 37.153485
O 11.357800 5.540958 35.862498
O -0.798636 3.301908 43.217971
H 0.579190 2.283102 42.573377
H 0.835536 2.282601 40.338042
O 1.155831 1.700640 42.014254
H -1.731458 3.107297 42.738109
H 2.065671 1.676525 42.429767
O 0.576260 2.663233 39.440752
H 1.208034 3.455410 39.231458
O -2.201310 2.983815 39.330969
H -1.159207 2.897405 39.449920
H 4.733018 1.993041 41.147832
O 4.873219 2.670434 40.430882
O 5.117047 0.808520 42.257782
H 5.659169 1.229612 43.009547
H 4.351868 3.458919 40.782220
H 6.597738 2.999035 40.719263
H 5.769908 0.288049 41.761383
H 8.976414 0.902857 39.256408
O 11.577810 0.062368 40.907669
H 8.268410 0.319729 40.552153
H 10.657247 0.411786 40.655088
O 7.582475 3.183193 40.975905
H 8.134531 2.416463 40.643425
O 8.997072 0.960629 40.263191
H 7.888502 3.610447 42.594498
O 8.125049 3.781334 43.539659
O -0.418247 6.035471 42.760100
H -0.406451 5.057968 42.667551
H 1.475015 6.414508 42.997652
H -1.039122 6.486210 42.119162
H -0.616628 6.818130 39.197919
O 2.462772 6.502348 43.158612
H 3.485827 5.751168 41.697730
O 3.928386 5.422641 40.874015
H 4.632439 6.190783 40.740036
O 5.900062 7.142043 40.242592
H 2.730147 5.131688 39.670587
H 6.758145 6.609137 40.200931
H 2.652054 5.868477 43.873938
H 5.663911 7.276278 39.312692
H 11.164036 7.535213 39.920150
H 7.756710 4.664432 43.810633
H 10.005289 4.204401 43.213852
O 10.935504 6.012725 40.746535
H 10.881546 5.610594 41.618933
H 7.806718 4.876176 40.357074
O 8.104955 5.718814 39.958562
H 10.009071 5.869572 40.333865
O 10.870370 4.743023 43.099892
H 11.607668 4.067428 43.197199
H -0.884687 2.921764 44.109982
H -1.766700 0.403150 46.190798
H 1.239850 0.558997 48.635427
H 0.347147 1.327917 45.617632
H -0.468949 2.636667 46.088442
O -0.577023 1.750061 45.590708
O 1.947804 0.624313 45.661324
H 1.694968 0.079635 46.470127
H 2.349217 0.034854 44.981974
H 3.380112 1.651591 45.906246
O 4.129149 2.393021 45.959396
H 3.828428 3.098397 47.530409
H 4.911261 2.187145 45.373987
O 6.340985 1.854099 44.331519
H 3.140585 3.744016 45.323158
H 6.792913 1.188474 44.919249
H 7.001126 2.615322 44.142940
O 3.722600 3.471432 48.452534
O 9.341987 0.394896 47.485730
H 8.978503 1.156309 48.050888
H 10.905308 1.097199 47.321056
H -0.493501 7.669020 45.331165
H -1.136676 5.894456 44.328212
H -2.246946 6.216639 45.452204
O 0.172398 4.268359 46.722128
H -0.144200 4.375906 47.643905
H 1.709738 4.327951 45.621403
H -0.321687 4.992000 46.217373
O -1.236623 6.020262 45.301863
H 2.194352 7.267476 47.663865
H 0.191159 7.586315 48.627188
O 6.239107 6.724606 47.190850
H 7.075460 6.234366 45.696487
H 7.153180 7.063006 44.351944
H 3.570151 5.050138 48.170825
O 2.618302 4.609485 45.260201
H 6.826044 6.557545 48.010271
H 5.283099 6.339383 47.312237
H 3.227257 5.613712 46.752359
O 3.517999 5.955791 47.666186
O 10.182572 6.901508 44.507798
H 10.540356 6.119514 43.984185
H 11.396068 6.628575 45.740702
H 9.199980 6.628514 44.675198
O 7.466883 6.227581 44.792756
H -1.377558 2.386535 51.982163
H 1.663033 0.770878 52.172889
H 1.746228 2.286831 50.172844
O 1.461452 2.272472 49.207142
H 0.702520 2.893285 49.151381
O 1.400117 0.088035 52.815859
O -2.098206 1.732389 51.668367
H -1.332890 0.059804 51.452051
H 2.617467 2.949877 52.158673
O 2.639400 2.154747 51.515356
H 3.550058 1.762134 51.476015
O 5.018952 0.845502 51.518315
H 6.258580 2.006404 52.119449
H 6.645657 3.320093 51.396232
H 5.349926 3.713893 49.382492
O 6.923293 2.770896 52.174224
H 5.268367 0.274319 50.759355
H 4.711345 0.221233 52.224647
H 2.869789 3.055908 48.802770
O 8.498749 0.695771 51.269622
H 8.047328 1.492312 51.730627
H 8.571333 1.705768 49.953453
H 9.514247 0.740174 51.467660
O 8.596675 2.364401 49.224782
O 11.210939 0.837152 51.785286
H 7.641344 2.677207 49.171109
H 11.416330 1.436785 52.585966
O -0.343168 3.927660 51.893560
H 0.608675 4.143861 52.263350
H -1.865313 4.333306 49.452992
H -0.363341 4.252820 50.974684
H -1.417106 4.880235 52.738512
O -0.901619 4.600682 49.309555
O 2.200324 4.374408 52.985348
H -0.930190 5.583539 49.261163
O -2.082530 5.526361 53.234041
O -0.693637 7.376099 49.032663
H -0.827872 6.861164 53.565767
O -0.016270 7.525677 53.553466
O 6.274722 3.803627 49.774622
H 2.610474 5.282782 52.855257
H 6.598866 4.746617 49.610935
O 2.848669 7.146872 53.342663
H 9.472141 3.959758 49.515658
H 8.607455 5.694247 49.263774
H 7.922875 6.757859 50.179284
O 10.990027 6.364506 51.544832
H 10.732766 5.674038 50.864960
O 10.103893 4.774662 49.505330
O 7.709582 6.196956 49.398855
H 9.461361 7.426651 51.601929
H 7.715056 7.035743 53.221798
H 10.769961 4.555968 48.804510
H 11.656207 5.414407 52.944151
O -1.626443 1.939384 58.170126
O 0.483109 3.670009 58.223276
H -0.442607 1.285256 55.171537
O 0.601383 1.167795 55.145426
H 1.310504 2.769277 55.220103
O 1.839368 3.565873 55.616816
H 0.790976 3.716790 57.315309
H 1.635382 0.661051 58.081812
H 0.788441 0.695251 54.272737
H 1.000781 0.362556 56.605147
H -2.113226 1.791939 56.489911
H -0.325976 2.985263 58.199312
O -2.043927 1.937422 55.545736
H 2.670217 3.161187 56.036856
O 4.045333 2.239885 56.908673
H 4.286621 1.356855 56.500529
H 4.840088 2.855564 56.956428
H 3.116880 2.001398 58.344315
H 6.985605 3.612464 53.686806
H 7.064623 0.851908 58.117788
H 9.292883 3.268954 58.299404
H 11.502347 3.400378 57.969825
O 11.497663 2.290205 54.016385
H 8.501571 2.648453 54.995200
H 8.571954 1.022526 55.272557
H 9.566173 2.366290 57.039171
O 9.040419 1.927910 55.417850
H 10.614407 2.092642 54.455050
O 9.943034 2.586506 57.944410
O -2.273621 6.227214 57.430081
H -2.300544 5.086093 54.101971
O 1.715970 7.531912 58.170648
H -1.479915 6.166698 58.061040
H 1.878708 7.257634 53.618163
H 2.230898 4.256971 53.948845
H -2.223618 7.225359 57.196765
H 4.183503 7.274933 54.466945
O 5.906215 4.186956 56.753980
H 6.628611 4.342775 57.472729
O 4.224705 6.464265 57.411804
H 6.787833 4.055013 55.238903
H 3.273821 6.713297 57.605606
H 4.377323 6.786222 56.526292
H 5.214974 4.905743 56.815022
H 5.880872 7.215701 54.681230
O 4.977580 7.497558 55.098774
H 10.308381 6.785244 56.101437
O 9.502168 7.387652 56.145129
O 7.491999 6.828644 54.162955
H 8.789988 7.112335 55.473032
H 7.388880 5.808316 54.075048
O 7.428389 4.076517 54.485107
H 8.691102 7.037149 57.617094
O -0.381391 9.971435 2.425282
H -0.742787 9.739335 1.515017
H 0.665088 10.107687 2.343456
H -1.412760 10.843536 3.453493
H -0.456616 8.227050 3.378961
H 2.080351 8.950489 1.139651
O -2.075397 11.343128 4.029903
O 2.293362 9.836283 1.642874
O 3.699910 9.286566 3.919865
H 2.748050 9.546357 2.486411
H 4.003397 10.222423 4.172707
H 4.603146 8.756288 3.813547
O 5.995731 7.988470 3.667482
H 5.843734 8.979036 0.853035
H 6.789865 8.493197 4.056658
H 6.139036 7.868967 2.702935
O 5.891314 7.996967 1.037110
H 2.987752 11.240312 0.613551
H 6.244018 11.368434 1.030681
O 6.416503 10.568036 0.441363
H 7.357329 10.252803 0.677670
H 9.020439 8.784101 0.800637
H 7.874673 10.297670 4.842617
O 8.181434 9.334796 4.732898
H 8.967835 9.323120 4.110522
H 10.056030 9.887996 2.329321
O 10.416015 9.773016 3.245505
H 10.747440 10.626901 3.639676
O 9.067963 9.769104 0.860713
H 11.707851 8.398083 3.790656
H -2.001825 12.970149 3.599013
O 0.917411 14.237864 3.945135
H -0.898306 14.078567 3.637570
H 1.396809 13.997940 3.116818
H 1.758256 14.678530 1.062246
H 1.520360 13.954785 4.686357
O -1.911238 13.974590 3.454352
O 2.317243 14.092137 1.652518
H 2.627073 13.339540 1.080391
H 4.004187 12.555890 4.928214
O 4.529998 11.914483 4.350233
H 4.647792 12.289192 3.470030
O 5.846894 12.834936 1.944984
H 5.736156 13.419983 1.158619
H 6.632844 13.277068 2.446763
H 6.316940 11.834101 4.991270
H 3.584882 15.085637 2.175371
H 7.405982 14.627367 3.900897
H 7.692480 12.577285 4.736676
O 7.997490 13.848729 3.714058
H 8.801445 14.248806 3.272985
H 11.035462 14.807080 2.760205
H 10.141201 14.511531 1.545393
O 10.089557 14.971451 2.405513
O 7.299702 11.810261 5.231746
O 11.423837 12.149700 4.669071
H 11.672575 13.022963 4.304567
O -1.951729 8.686298 9.616401
H -1.638888 10.223095 6.927721
O -1.555580 11.219040 6.792930
O -1.975014 8.412326 6.981799
H -1.571271 11.364889 5.821327
H -2.010021 8.511780 7.960382
O 3.047654 7.809429 9.975515
H 3.182803 8.737461 5.368411
O 2.962117 8.320391 6.261426
H 3.442706 8.617102 9.590058
H 3.329540 9.011311 6.920003
O 4.131238 9.806086 8.408157
H 3.595268 10.682405 8.319206
H 5.066645 10.068016 8.781719
O 6.889428 10.786687 9.705295
H 11.610546 9.334001 6.594022
H 9.228426 9.113638 6.193554
H 9.343003 10.143997 7.349617
O 9.791883 9.299586 7.006866
H 9.648465 8.110236 8.177510
H 7.424551 11.112128 8.955038
H -0.484543 12.363706 7.850078
H -0.223173 12.651310 9.464783
O -0.009852 12.938485 8.541498
H -0.024346 14.676941 8.312765
H 1.631877 12.653510 8.374851
O 4.360447 15.098351 9.219456
O 3.023124 13.508251 5.866383
H 3.085284 12.841598 9.063486
H 5.157572 14.575959 9.597137
H 2.909840 13.070825 6.764092
O 2.611253 12.395615 8.293211
H 3.601815 14.299786 6.086998
H 3.770350 15.277148 9.964374
H 9.300785 12.450874 7.627670
H 10.618076 13.231039 6.082832
O 10.223831 13.793715 6.802330
H 7.852323 14.301742 9.779218
H 9.723928 14.511408 6.338076
O 8.616486 11.725722 7.696023
H 8.075323 11.779576 6.821246
O 8.578049 15.007027 9.593597
H 11.320210 14.057050 8.472448
H 9.543314 14.651267 9.571374
O 11.286797 14.165368 9.418073
H 0.028731 9.222505 12.004921
O -0.349857 9.991362 12.527025
H -1.074923 9.614086 13.053365
H 1.069600 10.439363 13.566766
O 1.747966 10.702271 14.271589
O 0.449944 8.058400 10.924447
H 1.944852 9.041874 14.917982
H -1.768884 8.178148 14.726095
H -0.311747 8.251378 10.323023
H 1.338307 8.136643 10.506148
H 2.524287 11.160296 13.821841
H 4.522830 10.839929 13.386542
H 5.047398 8.705003 13.185545
O 5.526814 9.412672 13.739098
H 6.487056 9.449531 13.496208
H 11.119560 10.270102 13.058239
O 8.206720 8.935024 13.211134
H 8.448967 9.054650 12.266611
H 9.946872 9.803152 11.180393
H 8.952878 9.406314 13.718152
O 9.028736 9.447270 10.798998
O 10.422901 9.984761 14.634590
O 11.236733 10.338931 12.082151
H 11.192313 11.318799 11.884984
H 9.244569 8.737033 10.148660
H 7.528855 10.215026 10.189103
H -0.449883 11.539468 11.585404
O -0.182722 12.342862 11.130318
H -1.167482 13.702574 11.586216
H 0.803788 12.529544 11.373440
O -1.654263 14.590507 11.666928
H 1.481590 15.016563 14.753889
H -1.921786 14.684948 12.609014
H 6.474525 12.586698 10.262388
O 2.649960 12.859447 11.248223
O 3.953333 11.633665 13.170052
H 2.803087 13.799094 11.526625
H 3.186895 12.298178 11.891715
H 4.368913 12.389502 13.693897
H 6.064082 14.445024 13.501894
H 6.394322 13.780328 11.377734
O 4.808424 13.843350 14.477460
O 6.897048 14.646622 12.978223
H 3.930362 14.379741 14.539488
O 6.346629 13.575796 10.425378
O 2.419165 15.240961 14.460633
H 8.413240 13.892435 13.331709
O 9.325958 13.577997 13.684729
H 9.946138 13.447307 12.905519
O 11.294981 13.087574 11.861948
H 11.355261 13.379639 10.921894
H 10.030744 15.203184 14.344236
H -1.962584 10.692307 17.265536
O 1.872917 8.204983 15.395059
H -0.823978 8.825851 16.711402
H 0.089197 10.709851 18.921613
O -0.978335 10.444375 17.443961
H -0.448150 11.094401 16.942572
O -0.768987 8.007114 16.133363
H 0.177946 8.079672 15.878171
H 1.515895 10.967685 19.669839
H 2.434810 8.349548 16.198930
H 5.705339 8.949145 15.422214
O 3.206373 11.050573 19.210981
O 3.413526 8.790214 17.657085
H 3.258424 9.644160 18.156386
H 4.312923 8.908495 17.208150
O 5.957859 8.990711 16.395343
H 7.030589 10.384471 16.759795
H 6.284994 8.076249 16.656453
O 7.511415 11.177534 17.168287
H 10.166543 10.823547 15.163889
H 10.835038 9.356251 15.318641
H 7.980671 10.792311 17.958116
O 8.839092 9.472882 19.050543
H 9.870676 9.713784 19.076190
O 11.687137 9.751133 18.956660
H 11.688040 8.996457 17.464270
H -2.335152 13.061289 19.118780
H 1.090280 11.754758 15.441014
O 0.869001 15.077690 18.380477
H 0.068054 15.148537 16.627035
H -0.926927 14.768448 15.333321
H 0.274506 14.632073 19.020254
H 0.356674 13.053832 16.062979
O 0.027461 14.723886 15.711699
O 0.757472 12.184054 16.268734
H 2.241187 13.910345 18.139211
H 6.091456 12.558580 17.056706
H 2.370760 12.796487 17.115079
O 5.836566 13.542238 17.127322
H 5.225923 13.761317 15.363204
O 2.962704 13.259830 17.800174
H 4.987570 13.646582 17.650355
H 3.092875 11.916745 18.688296
O 8.077468 14.656402 18.390805
O 9.673074 12.184787 15.896391
H 11.309204 13.296873 18.446218
H 10.570383 13.116732 17.032046
H 9.397300 12.662007 15.074706
H 8.867990 11.788317 16.325946
O 10.784015 13.806796 17.782708
H 8.874819 14.112798 18.356512
H 7.248228 14.187924 17.972564
H -0.574918 10.186786 22.451068
O 0.220949 9.644894 22.249085
H 0.459838 10.019114 21.387885
H -0.362934 8.087191 21.894961
H 2.121559 8.782206 22.257614
O -2.194484 11.257917 22.533231
O 0.519164 10.903196 19.796564
H 4.226116 9.780046 21.524997
O 2.928195 8.474553 21.752395
O 4.665345 10.694263 21.481073
H 5.705056 10.571031 21.297425
H 4.633230 11.285179 23.160707
H 5.097011 10.772750 24.567279
H 3.835709 11.223930 20.001855
H 3.460372 7.975878 22.431630
H 5.682141 8.519054 24.549349
O 7.418625 10.304333 21.288954
H 7.441597 9.483335 21.865543
H 8.018600 10.927708 21.884517
H 10.086283 11.192755 23.204516
O 9.074171 11.408901 23.344877
O 7.711388 7.968176 22.696802
H 8.408781 9.748321 19.876116
H 8.714074 7.838098 22.680381
H 11.623133 8.054121 21.540026
H -2.029979 12.249154 22.414164
H -1.883698 14.720280 22.541934
O -1.399733 13.844511 22.461860
H -0.951519 13.493519 20.888004
H -0.670372 13.827701 23.219254
O 0.410220 13.904110 24.475310
H -0.154478 12.525021 19.923580
O -0.710208 13.371387 19.941451
O 4.583279 11.507193 24.111671
H 5.597084 13.122783 24.254991
O 6.193672 13.921715 24.406261
H 5.607187 15.037346 22.989941
H 9.070277 12.350320 23.533921
O 9.040137 14.123923 24.255513
H 8.054553 13.945127 24.454537
O -0.804613 10.659543 28.313803
H 0.502773 10.182629 27.364059
H -1.370469 9.939160 28.688119
H 1.050523 8.938386 26.476864
O 1.321838 9.827297 26.898064
H -1.558058 11.149844 27.820247
H 1.736356 11.293065 25.766006
H 2.244608 9.145179 28.232221
H 2.290642 7.802644 28.980157
O 2.825731 8.649988 28.889290
H 4.471298 8.497171 28.027859
O 5.395305 8.830191 27.751430
H 5.448416 8.725358 26.782595
H 5.327744 10.570175 28.188296
O 5.810941 9.291029 25.185007
H 6.589666 8.256819 28.792041
H 6.799178 9.494337 25.287305
O 5.532345 11.560007 28.321056
H 8.821708 10.534416 24.823457
O 10.114617 7.945254 25.953310
H 8.509360 10.675253 26.342364
O 8.490282 10.032073 25.579226
H 9.422529 8.699929 25.718194
H 11.551677 9.274035 25.962535
H 8.555981 11.411407 28.599922
O 11.501670 9.712072 29.290994
O 7.408465 8.194897 29.424682
O -0.587318 15.172559 28.746202
H 1.056968 13.185316 24.715415
H -2.151251 15.170420 26.059030
H 0.314964 14.880555 29.133167
H -1.244214 14.696135 27.258744
H -0.243487 14.011327 25.229628
O -1.594322 14.414033 26.347296
O 2.118455 12.061677 25.296240
H 2.463438 13.825990 28.918244
H 6.638206 15.100796 27.412219
O 3.554517 13.309649 27.598942
O 5.701614 15.002809 26.893248
H 2.943971 11.736603 24.828737
H 5.931895 14.215675 25.297691
H 4.297007 13.881554 27.205304
H 2.927292 13.021068 26.879786
H 4.705701 12.052080 27.982832
H 8.465900 13.732649 28.119479
H 10.821887 14.952196 26.994675
H 7.216112 11.757753 27.828080
O 11.061425 14.103874 26.473499
O 8.276707 11.841497 27.752707
H 9.548789 14.075205 25.121006
H 8.004094 14.959348 29.086573
O 8.195149 14.712272 28.173732
H 11.598298 12.638167 27.266462
H -0.376096 9.464080 33.530842
O 1.152829 8.741373 32.913752
O -1.295932 9.750888 33.868487
H 1.776289 9.187907 32.283548
H 1.567867 8.947861 33.818644
H -1.953403 9.324343 33.221224
H 1.380300 11.091895 30.775782
H -0.908511 11.305962 33.182521
H 3.044115 9.615797 30.405818
O 2.879712 10.160868 31.192572
H 3.694492 10.763642 31.308215
H 6.188761 9.355457 34.065306
H 6.088013 11.318188 31.446197
O 6.892645 8.958558 33.496492
H 7.247212 9.777051 33.033631
H 8.272474 10.838401 31.492442
O 7.637901 10.982722 32.294051
O 8.823288 10.522313 30.001852
H 9.798939 10.303783 29.923402
H 8.400258 9.629551 29.803872
H 7.062083 7.718655 30.256173
O 0.634587 11.760015 30.652190
H -0.002949 11.960512 32.121834
H -0.805629 13.714372 33.045061
O -0.383287 12.140348 33.018660
O -0.994697 14.707688 33.134245
H 1.565948 13.435204 30.117146
H -1.531920 14.995352 32.328053
H 0.167465 11.412507 29.846230
O 1.847789 14.230407 29.589298
H -1.200811 15.205079 29.508179
H 7.032564 15.105197 31.031960
H 5.333670 11.665268 30.074092
O 5.216667 11.703656 31.049426
H 5.487022 13.342902 31.588009
H 5.599003 14.394900 32.811049
O 5.735027 14.321181 31.842156
H 2.877573 15.271708 30.531731
H 8.082266 11.747484 32.817548
H -1.809061 9.245061 35.501180
O -1.030825 10.034090 38.666879
H -1.726615 9.183323 37.081767
H 1.827380 10.481602 35.382230
H 1.877212 8.922432 35.760085
H -0.531898 11.494051 37.839450
O -2.315193 8.941809 36.301453
O 2.300231 9.631935 35.234151
H 4.109790 9.903828 35.523983
O 5.017597 10.320715 35.317126
H 5.627393 10.253353 36.125059
H 6.633860 10.492483 38.256530
H 5.916035 8.166717 37.277135
O 6.768643 9.982071 37.407168
H 11.371967 11.496007 38.585297
O 9.076260 11.174233 36.359652
H 10.941600 8.987838 34.548128
H 8.365942 8.772548 34.436489
H 7.597996 10.476528 37.086757
H 9.165663 9.680714 35.487544
O 9.239150 8.835570 34.971590
H 9.902114 11.418742 36.873691
H 9.397582 7.815725 36.266058
H 10.793835 7.946415 38.464200
H 2.140411 15.082886 37.193116
H 0.729437 12.256856 34.502230
H -1.683104 13.155303 37.332490
O 1.292279 12.116264 35.308016
H 0.185323 12.974367 38.186785
O -0.218229 12.398060 37.464090
H 0.717167 12.364073 36.082179
H -1.917344 15.282955 34.492308
O 5.241840 14.980804 34.424768
O 3.819059 14.236214 37.782470
H 4.505954 11.971209 35.365286
H 6.802508 15.036735 35.124543
H 4.704910 14.210052 34.782140
H 3.664578 13.784301 38.623129
O 3.987198 12.833896 35.525724
H 5.441474 14.946572 37.765121
H 2.999154 12.588471 35.364590
H 4.015927 13.616690 37.034593
O 8.879561 12.850645 34.350902
O 11.681155 11.967175 37.794655
H 8.818434 11.950365 35.828960
H 9.876941 13.067830 34.298506
H 8.453087 13.695544 34.698933
O 7.715903 15.025060 35.564949
O 0.242933 9.815683 43.128382
H 0.524836 9.287911 41.504915
H -1.219165 10.814378 42.820388
O 0.928168 9.220305 40.608146
H 1.045877 10.421453 43.421695
H 0.822154 8.297040 40.247582
O -1.979532 11.434880 42.456632
H -1.870249 10.053040 39.202967
H -0.289086 9.799912 39.307470
H 2.502450 10.032501 41.010546
O 2.605343 11.195017 43.939448
O 3.262572 10.644139 41.286104
H 4.155507 10.177433 41.235797
O 5.775213 9.543850 41.524411
H 5.893628 8.659035 41.059345
H 6.001488 9.432844 42.490344
H 2.974218 11.195139 42.999161
O 6.865610 8.921576 43.905445
H 6.713048 10.699642 40.582267
H 10.321645 9.836588 39.720488
H 10.148595 10.047721 43.315395
O 9.854759 10.682466 39.844196
H 8.074533 11.074963 39.808163
H 10.167333 11.010168 40.719147
O 7.040522 11.253026 39.832301
O 11.201909 8.289950 39.294356
H 7.826303 9.236136 43.865989