18432
Timestep: 11000000
H -2.409167 2.685456 4.229159
H 1.287039 2.369451 0.204819
H -1.910891 1.031150 0.196480
H 2.430789 2.904608 4.161169
H 3.348577 1.173006 3.143483
O 3.254114 2.083209 2.828149
H 2.749769 1.918898 1.968272
O 2.005634 1.713772 0.407370
H 5.034184 2.860974 2.758459
O 5.825516 3.498011 2.698258
H 6.574681 2.994437 3.157051
O 7.683263 2.281881 4.143457
H 8.186481 1.506714 3.793833
H 9.438807 0.132372 2.414597
O 9.122866 0.188652 3.340924
H 9.553586 1.040918 0.429164
O 10.001777 0.283239 0.884888
H 9.998078 0.051689 4.808244
H 0.002977 5.155921 0.744327
H -0.310164 6.293237 1.911438
O -0.225511 6.132733 0.935149
H -0.576984 7.094402 4.168205
O -0.777879 7.308037 3.261618
O 5.635906 7.430406 0.298096
H 5.478675 4.839534 3.673894
O 5.500812 5.681019 4.286539
H 5.676366 6.487990 3.701394
H 6.829449 4.179208 1.256838
H 9.779901 5.921090 4.701232
O 10.753730 6.133905 4.760728
H 7.147324 5.191564 4.895987
H 8.180222 3.988102 4.826697
O 7.425082 4.198899 0.472052
H 7.899733 5.068011 0.369039
H 0.202853 3.198045 5.000595
O 2.041616 3.295662 4.968398
H 0.156201 0.131932 6.082967
O -1.247693 -0.222008 9.290334
H -1.840362 0.539868 9.508720
O 0.905401 0.191255 7.750756
O -0.721297 2.864935 5.239079
H -0.544668 1.239312 5.195038
H -0.856682 3.393205 6.049871
H 1.628002 0.877038 7.539835
O -0.276118 0.264254 5.168179
H -0.558564 0.096587 8.693314
H 2.727866 2.333488 6.125116
O 3.064196 1.705447 6.825421
H 3.576485 0.969466 6.336683
H 4.476849 2.146936 7.753048
H 5.139460 0.625495 8.876429
O 5.342898 2.146399 8.313504
H 6.166837 2.025586 7.735942
H 5.766960 3.570642 8.888010
H 7.517554 2.038612 5.079020
H 7.465997 0.677843 6.613208
O 7.548510 1.708224 6.681633
H 8.502138 1.985660 6.939758
H 10.467892 0.571691 6.193542
H 10.770005 2.025635 8.327906
H 10.946470 3.032308 7.152383
O 10.342130 2.297647 7.466236
H 0.747276 7.265088 6.157213
O 1.190647 3.809764 9.418426
O -0.183412 6.847196 6.033235
H 0.063337 4.267729 8.038332
O -0.730858 4.437557 7.435492
H -0.500668 5.289459 6.966858
H -2.221205 4.246223 8.194406
H 2.060685 4.273819 9.116213
H -0.820535 7.431516 6.556892
H 2.391996 4.240552 5.037947
H 4.160965 5.725017 5.256250
H 3.065317 6.798508 9.065893
H 3.019434 6.684902 5.802627
O 3.400703 5.153274 8.491623
H 3.294118 5.166294 7.512500
O 3.300150 5.735366 5.787890
H 4.418236 4.978749 8.633882
H 6.869624 4.815838 8.642524
O 5.991340 4.565541 9.022275
H 11.057721 5.546340 5.497992
H 8.861043 6.743032 8.361120
O 8.473116 4.998959 7.894367
H 11.054875 6.726556 8.761798
H 9.160367 4.288142 8.050147
H 8.257272 4.952480 6.906721
O 8.064987 4.884150 5.248603
H -0.537953 2.860511 13.204238
H -0.062084 1.345840 13.735595
O 0.222298 2.292815 13.527672
H 1.358621 2.072966 12.141993
H 1.530408 2.361781 10.603649
H 1.110199 0.036614 11.169043
O 1.768445 1.722991 11.300251
H -2.459267 2.619976 10.834086
H 3.569998 1.044096 11.715743
O 4.489482 0.611493 11.833313
H 5.846742 1.809494 12.230582
O 6.566828 2.466137 12.467250
H 4.672036 0.125614 10.987868
H 6.763665 2.405705 13.453133
H 8.275141 1.805681 12.020308
O 9.215566 1.472022 11.972222
H 10.684532 2.515022 12.389419
H 9.253010 0.613215 12.486297
O 11.315219 3.184568 12.818373
H 10.777232 3.536110 13.585047
O -1.847458 3.791430 11.992268
H -1.198145 4.460513 11.631563
H 0.110865 6.372410 11.099030
O 0.221979 5.459954 11.560610
H 0.904553 5.530845 12.304004
H 1.727479 6.446275 14.164255
H 0.942184 4.301058 10.239065
O 2.063445 5.643691 13.644125
H -2.536106 4.327963 12.447322
H 2.828680 5.986298 13.061978
O 4.156298 6.864598 12.008845
H 3.668786 7.072186 11.161460
H 4.825112 6.157725 11.835077
H 6.120630 3.938803 12.016781
H 5.991511 4.743164 10.692297
O 5.959017 4.868303 11.664306
H 7.196719 5.634515 12.854467
O 7.774939 6.106198 13.554714
H 7.771581 7.103164 13.351788
H 9.048092 5.107276 14.147325
O 9.573845 4.345963 14.534248
O -1.781669 -0.090112 18.683702
H -0.312406 0.934199 18.240111
O 0.472609 1.579031 18.304010
H 0.430806 2.215192 17.504887
H 0.350705 2.820123 15.306858
O 0.474180 3.068062 16.242245
H 2.104730 0.854280 18.217890
H 1.306222 3.637288 16.311670
H -2.016840 0.463609 19.499462
H -0.028896 2.255204 19.631316
H 3.730074 1.035815 18.119661
O 2.967018 0.332959 17.989922
O 5.070775 2.187701 18.541619
H 5.416705 3.126235 17.225130
H 5.924532 1.743176 18.791514
H 6.884249 2.746109 15.576094
H 4.789262 2.654996 19.368253
O 5.624525 3.560781 16.356288
H 8.493943 1.208562 19.560598
H 7.632105 0.122916 18.709627
H 7.431740 0.552191 15.215095
O 7.562395 2.309236 14.972607
H 8.356971 2.989488 14.857389
O 7.543275 0.890176 19.334217
O -0.188153 5.429044 19.531617
O -2.478279 5.764677 17.543392
H -1.745289 5.535726 18.208308
H -2.131095 6.529520 17.011329
H 0.768980 5.709028 19.406346
O 2.651544 6.030482 19.428391
H 2.813373 4.951412 15.092705
H 2.846167 6.659725 18.667713
O 2.905645 4.541709 15.960253
H 3.805815 4.043140 15.936798
O 6.928351 6.134399 16.326719
H 6.140888 4.450720 16.485967
O 9.028403 6.072382 18.126715
H 7.311441 6.127426 15.397916
H 9.099592 7.016031 18.433572
H 10.666835 5.654429 17.181100
O 11.262809 5.629597 16.375569
H 10.141366 4.742053 15.269883
H 7.741990 6.191048 16.973824
H 8.936671 5.491221 18.894976
H 11.405586 7.341854 16.089463
H -1.152444 2.329008 20.758224
H -1.568505 1.764632 23.984461
O -0.358950 2.812353 20.421798
O -1.746615 0.210956 23.345821
O -1.615162 2.749725 24.293200
H 0.945530 3.307473 21.708072
H -2.424642 0.511451 21.779966
H 2.432946 2.395745 23.226664
O 2.852894 1.710661 23.814161
H 2.886809 0.189133 22.966658
H 4.632315 1.658419 23.751731
H 6.131101 2.364003 23.990457
O 5.619631 1.505566 23.746852
H 6.379551 0.817415 22.420369
H 7.130196 0.608445 21.070666
O 7.098613 0.272742 21.963257
O 9.974234 2.056409 20.351902
O 9.649871 1.033840 22.761910
H 9.997736 1.623924 21.252077
H 8.715990 0.761779 22.454700
H 9.913060 2.174285 24.051064
H 10.970313 1.937361 20.119702
H 10.094704 0.205733 23.054777
H 8.186083 3.473741 24.288908
O 1.693284 3.659423 22.308208
H -0.213242 4.466135 19.722551
O -1.240387 6.607335 21.761801
O 0.004206 5.076557 23.867949
H -0.529849 5.580353 23.174933
H -0.866629 6.250782 20.908479
H -0.588866 4.288969 23.972880
H 1.232899 4.272326 22.942733
O 4.048746 7.094587 23.720164
H 3.283306 3.718836 21.266009
O 3.984272 3.877946 20.602738
H 3.830968 6.326128 24.302841
H 2.673379 6.701008 20.175018
H 3.591793 4.576920 20.035581
O 6.608654 7.230840 22.726757
H 4.999073 6.976846 23.368395
H 5.623045 4.347154 21.356596
O 6.543668 4.667447 21.692729
H 6.806857 6.329337 22.309501
H 6.699931 4.243564 22.547756
H 2.824691 7.455336 22.481271
H 11.250404 7.407450 21.419908
H 9.306388 3.636325 20.297350
O 7.196662 3.759237 24.176688
H 7.988791 4.574970 20.790967
O 8.873050 4.549750 20.312869
H 10.641739 5.943102 22.790127
H 9.761406 5.618298 21.432899
O 10.084404 6.323536 22.095817
H 10.948234 4.298133 24.475727
H 7.170713 7.352282 23.562150
O 11.581425 5.078279 24.281619
H -2.198277 1.494119 29.006050
H -1.384057 2.825824 25.253981
H -1.217027 2.424693 27.341671
O -0.682499 3.110524 26.802495
H 1.166581 2.949328 26.408577
O -2.302548 1.308857 28.073603
H -2.297211 0.314114 27.922819
O 2.174730 2.838894 26.253032
H 2.563357 1.928388 24.732265
H 2.975474 2.381448 27.724890
O 3.450382 2.103474 28.586325
H 3.370258 1.110945 28.568161
H 4.943932 2.383885 27.858979
H 6.248668 0.537591 24.980749
H 5.946953 1.650656 26.864278
O 5.810379 2.517750 27.359483
O 6.588680 0.270668 25.882863
H 7.560517 0.132454 25.809499
H 7.339723 2.214803 28.259246
O 8.139420 2.082389 28.906057
O 11.523495 1.975676 26.779451
O 9.925068 2.921368 24.735851
H 9.749285 0.938741 29.067657
H 10.992393 1.009009 28.097352
H 8.713258 2.895796 28.824287
O 10.713611 0.679293 28.998114
H 10.335472 2.563778 25.552433
H -0.680132 3.905776 27.374061
H -1.352445 5.821875 28.375522
O -0.404070 5.489339 28.274588
H 0.305955 6.071148 26.985022
H 0.608603 5.928995 25.440271
H -0.107614 5.059890 29.119035
O 0.856883 6.416593 26.249975
H 1.853286 7.256695 29.000700
H 2.621993 3.727315 25.997141
H 6.819035 5.466476 26.842586
H 6.879127 4.280003 24.974988
O 6.060025 4.913554 26.340916
H 5.936027 4.002998 26.786623
H 4.344144 5.262819 26.089727
O 3.449471 5.195340 25.613334
H 2.747367 5.775606 26.018598
O 9.821271 4.497828 28.728702
H 8.901446 5.666425 27.855922
H 10.847738 4.351733 28.768735
H 8.067036 7.317293 26.074032
O 8.216755 6.311318 27.453774
H 7.849713 6.937044 28.188998
H -1.278445 2.952580 30.711049
H -2.377342 0.491816 33.688626
H 1.312960 2.024858 33.833237
O -2.140395 2.405940 30.596183
H -2.190202 1.839195 31.388311
O 2.090652 1.920866 33.208059
H 2.391484 0.959648 33.144806
H 2.360528 2.625820 31.569780
H 2.763187 2.710398 30.047132
H 3.201647 3.031086 34.163079
H 5.551515 0.511624 31.038364
O 6.803784 2.098421 31.268801
O 2.539308 3.265326 30.854837
H 5.798828 3.392138 31.592001
H 7.182891 2.004000 30.384793
H 7.694815 2.159185 31.788637
H 10.133115 2.436165 31.855299
O 9.298819 2.722154 32.320053
H 9.489112 2.659976 33.288712
H -0.340911 5.934710 33.386941
H -0.027741 5.014670 31.318474
O -0.379760 6.318414 32.486943
O -0.066539 4.300194 30.617346
H 0.236057 7.156974 32.589464
H 0.913083 3.991132 30.664256
H -2.059712 7.160368 31.983685
H 4.220431 3.919574 31.463850
H 4.451014 3.912317 33.666640
O 5.135590 4.060745 31.905090
H 6.205989 5.728843 31.810740
O 6.848683 6.494284 31.670596
H 6.792744 7.197208 32.358910
H 6.877648 7.308963 30.214375
H 8.445858 5.764307 31.419937
H 9.178577 4.355324 31.736671
O 9.253465 5.192107 31.227123
H 11.224568 5.255303 31.458147
H 9.608102 4.807921 29.666440
H -2.214968 2.246262 38.619450
H -0.877891 1.250870 34.966670
O -1.360014 0.368234 35.133031
O 0.425047 2.611899 35.142319
H 0.207468 3.597091 35.182117
H -2.253013 0.858871 36.590193
H 0.800796 2.301788 36.018627
H 0.905429 1.512107 38.308596
O 1.269922 1.118097 37.462915
H 2.281332 1.072316 37.671778
O 4.089548 1.200176 38.292371
H 4.716593 2.271563 35.361411
H 4.701627 1.492965 36.770722
H 4.624462 0.380110 38.347923
O 5.177416 1.553693 35.895472
H 4.241998 1.661313 39.147457
H 6.757235 2.209089 36.266699
H 5.283090 -0.226080 35.337603
H 7.486085 -0.164353 38.077865
O 7.668468 2.570566 36.657796
H 7.933820 1.889284 37.336586
O 8.319243 0.485256 38.159164
H 10.134253 0.721927 34.745697
H 10.478135 3.085414 35.322848
O 9.752415 2.424125 34.910413
H 8.948336 2.499441 35.521306
H 9.165489 0.018516 37.870824
O -0.200513 5.212681 35.045853
H 0.347781 5.959948 35.485682
H -1.115427 5.248823 35.474631
H 0.896045 6.976414 37.551445
O 1.293970 7.042073 36.629403
H 2.081928 6.360561 36.693714
H -2.307945 4.338972 39.064570
O -2.568520 5.799716 36.323721
H -2.555437 6.789129 36.274224
O 2.268886 4.713241 39.206360
O 3.964981 3.630228 34.480048
H 4.218838 5.919974 37.071642
O 5.756091 6.640534 37.585423
H 6.555902 6.055659 37.442399
H 2.728088 4.823755 38.337165
O 3.354496 5.426187 36.734863
H 3.476558 4.814851 35.965250
O 11.558037 4.498692 36.051664
O 7.879418 5.055064 37.678656
O 9.999899 6.552908 36.935790
H 10.712530 7.321058 38.360444
H 8.661872 5.550900 37.321361
H 10.551088 5.764289 36.511892
H 9.718329 7.155617 36.218084
H 7.785978 4.122411 37.292086
O -0.953661 2.197636 43.516944
H -1.789715 2.143085 42.964601
H 0.505347 1.619289 42.674203
O -2.037192 2.730756 39.437855
O 0.648289 2.578841 39.751531
H 0.941149 2.118538 40.601856
O 1.210421 1.191710 42.141376
H 1.353437 3.312391 39.563949
H -1.043373 2.706930 39.597045
H 2.089901 1.230728 42.614948
H 4.406229 3.280297 41.194232
H 4.697302 1.656228 41.438366
O 4.847590 2.451086 40.857277
O 4.867393 0.396340 42.464282
H 5.440378 0.861969 43.208323
H 6.626636 2.728676 41.207576
H 5.547987 -0.234672 42.048319
O 7.631707 2.861140 41.402801
H 8.160931 2.016403 41.148439
O 8.795886 0.491519 40.733593
H 8.607698 0.589328 39.788331
H 7.824105 3.226585 43.026619
O 7.967451 3.492525 43.985166
H 10.369331 -0.076707 40.996538
H 8.048542 -0.140284 41.048739
H -0.901803 6.684100 42.319435
O -0.256286 6.529767 43.068944
H -0.455957 5.605531 43.393319
H 1.729049 6.676448 43.138780
H 1.046459 5.958776 39.420748
O -2.358327 6.970367 41.135506
O 0.333514 6.664662 39.324400
H -0.560960 6.221100 39.540670
H -2.569450 6.333780 40.366246
H 3.559869 5.560224 42.066190
O 2.671330 6.423504 43.360517
O 3.968338 5.066332 41.304866
H 2.958630 4.864168 39.979088
H 2.552659 5.768429 44.050183
H 4.711870 5.663376 40.986839
O 5.870756 6.671697 40.223163
H 6.803386 6.312799 40.367539
H 6.757577 6.737663 44.070640
H 5.720468 6.730258 39.254269
H 8.192969 5.006672 39.302414
H 11.208976 6.940562 39.851642
H 8.092530 4.290240 40.691386
H 11.366207 3.862605 43.544397
O 8.318275 5.163918 40.270074
H 9.780868 4.203219 43.426239
H 10.090607 5.336154 40.420504
O 10.694491 4.572095 43.208264
O 11.102733 5.445403 40.698851
H 11.096303 5.121179 41.612370
H 7.520570 4.411893 44.072521
H 10.258137 6.090709 43.959536
H -1.053166 1.660967 44.351691
H -0.038451 0.620781 45.729199
H -0.845762 1.662664 46.556421
O -0.974699 0.960641 45.839480
O -0.405852 3.294761 47.629129
H -1.037330 3.675843 48.317678
O 1.524052 -0.023911 45.695045
H 1.280933 0.161899 48.503850
H 0.916822 2.446211 48.743810
H 3.002857 2.742400 48.733346
H 2.769754 1.273998 45.829427
O 3.362349 2.106751 45.818787
H 3.780151 2.887274 47.440665
O 3.735764 3.324968 48.302276
H 4.285019 1.880225 45.525098
O 6.094624 1.497501 44.763127
H 6.473503 0.696250 45.245105
H 6.859950 2.187152 44.582069
H 2.441038 3.499320 45.375372
O 9.123322 -0.056328 47.899540
H 8.827468 0.767030 48.434660
H 10.836016 0.749598 47.580397
O 1.276267 7.360675 47.696908
H -0.219917 7.036951 48.624241
H -1.804312 7.272308 48.319500
H -0.423356 3.942721 46.892495
H -1.116229 3.668130 44.483310
O -0.876770 4.520586 44.946007
H -1.777350 4.885933 45.216418
H 1.017556 4.299756 44.942715
H 1.931998 6.599744 47.570168
O 2.018256 4.381298 45.141114
O -1.162778 6.975304 49.016807
H -0.304303 7.350308 44.827614
H 5.071571 5.947483 46.996074
H 6.398273 6.204192 47.879612
O 6.035100 6.319587 46.966094
H 6.863080 6.111999 45.492648
H 3.251894 4.812166 47.643532
O 3.271584 5.659766 47.122873
H 2.767859 5.334710 46.291183
O 7.228017 6.048315 44.612520
H 11.039454 6.493482 45.789395
O 9.918239 6.900081 44.463735
H 8.992211 6.578208 44.753016
H 10.453495 4.340884 48.785547
H -1.811402 2.066665 52.446205
H 1.073534 0.411551 52.730783
H 1.442756 1.867309 50.086224
H 1.742394 2.630171 52.347094
O 1.768036 1.766335 51.826964
O 1.599270 1.841780 49.126383
O -2.458919 1.297602 52.177558
H 2.721288 1.441315 51.688467
O 4.314383 0.533932 51.645260
H 6.159838 3.090178 51.562550
H 5.462116 1.816387 52.205422
O 6.218451 2.474202 52.336924
H 6.259423 3.412711 53.796026
H 4.297311 -0.005780 52.458374
H 4.739640 -0.052645 50.951245
H 7.595458 1.356028 52.006905
H 7.320318 2.473770 49.315024
O 8.076653 0.640299 51.489362
O 8.286806 2.121753 49.370282
H 8.233656 1.544702 50.158000
H 9.072562 0.639873 51.801569
O 10.801019 0.640805 52.251745
H 10.870614 1.173314 53.087961
H 11.497830 0.912780 51.580303
O -1.022073 3.699003 52.277140
H -0.072651 3.925227 52.597341
H -1.104416 3.893126 51.321296
O -1.714844 4.263934 49.683723
H -1.941284 4.840447 53.307346
H -1.632536 5.266089 49.619118
O 1.576678 4.111248 53.478646
H 1.979953 5.025635 53.397993
H 1.302153 7.140189 53.886555
H 5.201317 3.687031 49.307499
O 6.070268 3.717781 49.871012
O 2.192098 6.936119 53.548012
H 6.567739 4.581320 49.854611
H 11.512398 5.098600 52.887798
H 9.207258 3.664316 49.524651
O 7.432422 6.109592 49.456343
H 7.392532 6.944326 53.375948
H 7.615318 6.600794 50.295263
H 9.136979 7.251018 51.841543
H 10.422538 5.678045 50.787881
O 9.737620 4.526233 49.457636
O 10.777232 6.302123 51.493418
H 8.316909 5.664123 49.288747
H 11.337128 3.858242 53.931055
O -2.074236 1.887550 58.560607
H 0.473588 0.122850 57.051361
H -0.695906 3.069364 58.561195
H 0.316403 0.395686 54.780792
H -0.971490 0.956964 55.546936
O 0.062563 0.797774 55.614245
H 0.508198 3.546403 57.626749
O 0.205499 3.580096 58.572834
H 0.799755 2.334469 55.697778
H 1.246813 0.442387 58.462553
O 1.222468 3.195947 56.057954
H 2.143164 2.877950 56.373982
O -2.497572 1.735956 55.906524
H -2.355709 1.550441 56.880121
O 3.583029 2.140166 57.118023
H 3.932545 1.260342 56.812694
H 4.369183 2.810052 57.113144
H 2.726039 1.820812 58.509523
H 6.833717 0.499727 58.329405
H 11.402854 1.892684 55.079419
H 7.957777 2.632349 58.673533
H 7.629317 2.629850 55.251365
H 7.961590 1.024090 55.280934
O 8.173734 1.745052 58.238583
H 8.255565 1.905926 57.293732
O 8.282311 1.946228 55.547348
O 10.725561 2.253507 54.377879
H 9.762715 2.187695 54.762157
O -2.361946 6.265777 57.814449
O -2.297876 5.460608 53.999539
H -1.109924 6.813257 54.137390
H -1.713775 6.053869 58.546792
H 1.533800 3.825833 54.404215
O 1.647646 7.439415 58.243814
H -2.365620 7.233555 57.797284
H 0.971519 6.984128 58.802448
H 4.908935 7.073112 58.428047
H 6.234498 4.119375 57.725566
H 3.639423 7.374127 54.539891
H 6.992939 5.689411 54.188298
H 3.045861 6.527607 57.549035
H 4.126195 6.912052 56.394909
O 3.993377 6.360747 57.262458
O 6.669373 3.952916 54.537657
H 5.292764 7.128218 54.625776
O 5.593967 4.041190 56.977821
H 4.992415 4.862650 57.044660
H 6.043921 3.986041 55.326199
H 9.962341 6.675831 56.035087
O 9.121842 7.245094 56.117327
H 8.380758 6.826215 57.675775
O 8.215446 6.788573 58.650489
H 8.467311 6.908411 55.389157
O 7.040000 6.672808 54.226685
H 11.291604 5.111762 56.695124
H 7.194215 6.980302 58.712037
O 11.605041 5.841869 56.138666
H -1.292165 10.788285 3.454867
O -0.293537 9.829147 2.249881
H -0.825748 9.774967 1.397264
H 0.654372 9.859384 1.869401
H -0.437355 8.224165 3.042955
H -2.479620 7.556600 2.269433
H 2.257926 8.724808 0.592574
O 2.451144 9.560282 1.139962
O 3.570681 9.304067 3.751708
H 2.901901 9.265191 1.985025
H 3.859421 10.292641 3.820386
H 4.388360 8.819407 3.492225
O 5.836670 7.915683 2.885035
H 6.771632 8.307040 3.081312
H 5.784146 10.843083 0.509771
H 5.788300 7.678228 1.928533
H 2.759864 11.148603 0.426320
H 5.573253 8.426137 0.222125
H 7.670630 9.866789 4.070799
O 8.138737 9.017801 4.039637
H 8.989365 9.220452 3.555660
H 10.681516 10.937374 3.165951
H 10.266047 10.083880 1.828105
O 10.508067 9.999278 2.770440
O 8.837427 9.484689 0.104982
H 8.848979 8.465878 0.160022
O -1.931394 11.376740 3.919157
H -0.710400 12.965060 3.541469
O -0.324254 13.856073 3.353169
H -1.924406 14.499201 3.104791
H 0.131840 13.789304 2.483769
H 0.796170 14.427002 0.534919
O 1.273638 13.930061 1.252782
H 1.760479 13.196777 0.816668
H 0.975355 14.778618 4.098322
H 4.218724 12.908967 4.471107
O 4.356948 12.006292 3.949719
H 4.376922 12.171116 2.987039
H 5.994982 11.677385 4.372318
O 5.487325 12.363277 1.276414
H 6.224824 12.862192 1.798736
H 5.397528 12.883975 0.467657
H 6.863308 14.511543 2.951256
O 7.015018 11.553474 4.402851
H 7.415635 12.266518 3.866533
O 7.421724 13.703097 2.766483
H 8.270133 14.003186 2.369079
H 10.485760 14.529808 1.918557
H 9.539417 14.369613 0.584803
O 9.550343 14.759797 1.486711
O 11.111610 12.329954 4.265812
H 11.486392 12.986041 3.632369
O -2.208602 8.463348 9.498786
O -2.071426 8.602501 6.967387
H -2.150825 8.456745 7.969142
H -1.630948 10.186687 6.835474
O -1.523459 11.178038 6.687923
H -1.526623 11.312624 5.702981
O 2.912036 7.634661 9.645160
O 2.442404 8.389359 6.135815
H 2.760427 8.784665 5.300939
H 2.951824 8.878647 6.835238
O 4.175646 9.858890 8.376874
H 3.585818 10.659252 8.530832
H 3.466486 8.397319 9.270523
H 5.096667 10.187983 8.747749
O 6.793086 10.983038 9.192222
H 11.641176 8.939307 5.961341
O 9.414053 7.542962 8.606841
H 7.229610 11.221542 8.328612
H 9.209249 8.904380 5.545173
H 9.293299 9.972990 6.692038
O 9.700574 9.076609 6.383535
H 9.374504 8.128455 7.812127
H 7.473110 10.439014 9.675199
H -0.710076 12.166056 7.883374
H -0.548264 12.470588 9.427127
O -0.225141 12.737540 8.576978
H -0.126694 14.578497 8.240258
H 1.690900 12.324401 8.640936
H 3.123856 14.664765 5.060238
O 2.631564 12.181668 8.935861
O 4.001856 14.210836 5.329620
H 3.713799 13.473911 8.446828
H 4.032870 14.131355 6.290831
O 4.438551 14.126789 8.204928
H 5.102585 13.952770 8.946736
H 10.627570 13.170982 5.700071
H 9.756740 14.280073 6.416807
O 8.428274 11.412346 6.965271
H 9.181422 12.113233 6.863514
H 11.530039 14.628542 9.589197
H 7.597165 14.340918 9.527590
O 10.311458 13.466444 6.597277
H 7.942299 11.389884 6.070975
O 8.283847 14.978554 9.186285
H 10.871980 13.657803 8.510551
H 9.188479 14.590530 9.366049
O 10.787646 13.926791 9.475977
H -0.583420 9.094319 11.809211
O -0.946036 9.719058 12.468073
H -1.730824 9.222735 12.831717
H 0.390853 10.065121 13.469652
O 0.221285 8.002260 10.628104
O 1.163451 10.237288 14.177658
H -0.486703 8.238419 9.952606
H 1.985740 10.652711 13.750174
H 1.080511 7.956904 10.116380
H -2.459278 8.198432 14.465645
H 4.183898 10.679863 13.194420
H 4.887424 8.280196 12.935825
O 5.239842 9.089383 13.432794
H 6.267105 9.101848 13.222343
O 7.973312 8.710861 12.989966
H 8.177490 8.959918 12.070217
H 9.724418 9.766821 11.050121
H 8.804137 9.032734 13.534844
O 8.860417 9.487095 10.545922
O 10.109385 9.650192 14.342550
O 11.416455 10.336269 12.005142
H 11.156452 10.064380 12.916661
H 9.106022 8.767140 9.875538
H -1.024332 11.360387 11.562902
O -0.851060 12.296755 11.242230
H -1.823460 13.698654 11.656429
H 0.180779 12.369448 11.372086
O -2.402157 14.554986 11.658193
O 1.998220 12.790980 11.385901
O 3.431489 11.348539 13.190717
H 2.204156 13.725682 11.564254
H 2.546780 12.280649 12.036709
H 3.778216 12.118170 13.786914
O 4.370663 13.597513 14.629832
H 5.697820 14.074460 13.446314
O 6.434238 14.237864 12.820019
H 6.283779 13.637315 11.194379
H 2.501648 12.313910 9.920744
H 6.489664 12.478857 9.992873
O 6.259594 13.461075 10.209202
H 11.383393 11.342368 12.047761
H 7.915098 13.651755 13.487287
O 8.852678 13.571842 13.913361
H 9.482283 13.482118 13.125760
H 10.937706 13.321058 11.200375
O 10.905042 13.069718 12.145755
H -2.326334 10.356880 17.206554
O 0.146619 10.434880 19.638429
H 1.160339 10.405074 19.365491
H -0.613188 7.639228 15.645048
O -1.576193 7.949314 15.849150
H -1.430611 8.776581 16.472271
H -0.434555 10.239325 18.844656
O -1.338947 10.241855 17.415358
H -0.799224 10.834567 16.856548
H 1.259719 8.581890 14.911765
H 1.753422 7.735617 16.133140
O 1.164521 7.687299 15.325964
H 0.724275 11.206547 15.464696
O 2.938235 10.348487 19.168561
O 2.953617 8.078224 17.482196
H 2.948325 8.840326 18.148818
H 3.829033 8.175477 17.021792
H 5.222599 8.592319 15.157603
O 5.394739 8.449710 16.122853
H 6.507305 9.725723 16.522120
H 3.040375 11.270169 18.863114
H 5.964992 7.639043 16.289920
H 8.323795 9.121101 19.516156
O 7.123765 10.448949 16.933850
O 11.515130 9.268832 18.725675
H 7.700790 9.948245 17.580838
H 9.868958 10.475731 14.847924
H 10.694775 9.116535 14.966141
O 8.737785 8.960967 18.628503
H 9.729368 9.138750 18.772703
H 8.361410 11.357610 16.154420
H 11.638558 8.660260 16.979350
H 1.116106 14.818729 15.061608
H -0.337445 14.588185 16.758553
O 0.656864 14.819099 18.256747
H 0.014216 14.328083 18.819025
H 0.090595 12.632882 15.922631
O -0.500162 14.343448 15.799183
O 0.541374 11.814193 16.263055
H 2.068134 12.382036 17.112850
H -1.432961 14.651621 15.493324
O 2.033581 15.105489 14.764626
H 3.488736 14.065821 14.824998
H 2.522937 13.657185 17.991745
O 2.807608 12.751178 17.722098
H 4.531080 12.546799 17.264222
H 5.975236 11.801481 17.018148
H 4.822552 13.290327 15.452998
H 6.886639 14.001397 17.390668
O 5.450905 12.659170 16.909807
O 9.185463 11.824930 15.845270
H 8.879879 12.393638 15.065135
H 8.492179 14.099884 17.531047
O 7.634267 14.639403 17.653261
H 10.634854 13.603807 18.375787
H 10.168795 12.836583 17.006920
O 10.380769 13.757585 17.459799
H -1.231151 9.664138 22.116686
O -0.353680 9.260378 21.874962
H -0.184511 9.573796 20.937048
H 1.537425 8.248848 21.880723
H -0.943082 7.596834 21.811768
H 4.030935 9.253096 21.611547
O 2.448333 7.895072 21.685028
O 4.501660 10.140344 21.574277
H 5.484309 9.933496 21.428843
H 4.420853 10.913369 23.101334
H 3.409353 10.315288 20.039637
O 4.331056 11.166190 24.072403
H 7.191768 8.602439 21.683441
O 7.219310 9.433285 21.151966
H 7.858704 10.031675 21.643702
H 10.169478 10.868877 22.646750
O 9.224785 11.116452 22.753327
H 9.067212 10.731390 24.515172
H -0.439301 12.181298 19.827364
O -0.900278 13.053921 19.941054
O -1.838518 13.273666 22.438828
H -1.138286 13.142164 20.906891
H -1.224629 13.284280 23.261876
H -2.418374 14.083716 22.496143
H 0.717532 14.993056 23.933553
O -0.173983 13.438490 24.495655
H -2.514765 11.631844 22.296274
H 5.526021 12.739515 24.075637
O 6.015126 13.629108 24.217073
H 5.520103 14.576090 22.708474
H 7.957435 13.665454 24.239588
O 8.911575 13.738271 23.950366
H 9.214029 12.078306 22.975593
O -1.083253 10.367370 28.387632
H 0.038628 9.548619 27.309339
H -1.740321 10.860855 27.798724
H -1.673701 9.616807 28.760681
H 0.590097 8.344312 26.449197
O 0.863524 9.222550 26.823658
H 1.718397 8.530795 28.108756
H 1.530334 10.781312 25.723497
H 4.794838 10.445802 24.555616
O 2.321365 8.122160 28.826873
H 3.913367 8.423484 28.269121
H 4.643184 8.303152 24.918789
H 4.935339 8.628172 27.143095
O 4.825738 8.813174 28.093060
H 5.149305 10.422106 28.170304
O 5.222884 8.952019 25.469193
H 6.198477 8.592998 25.409938
H 6.156253 8.181215 29.101928
O 11.626949 9.682342 29.406611
H 8.428046 8.675873 25.387658
H 11.162541 9.784778 25.159573
O 9.177439 10.305230 25.397946
H 8.732151 10.927007 26.028709
H 8.531046 11.319536 28.250957
O 7.798554 7.893653 25.311297
O 7.080346 7.866810 29.424070
H -2.353965 15.034524 26.170674
O 1.483063 13.855887 29.207917
H -0.042138 14.792009 28.991177
H 0.475284 12.707056 24.794459
H -1.515947 14.479701 27.432846
H -0.726288 13.703961 25.288429
O -1.918038 14.203801 26.518035
H 2.097765 13.493534 28.536652
O 1.831269 11.600249 25.267032
H -2.533479 12.539332 26.643012
O 5.410616 11.423206 28.288462
O 5.260783 14.705246 26.496167
H 2.655840 11.349094 24.775648
H 3.878939 13.628059 26.932234
H 2.742297 12.518351 26.608152
O 3.307036 12.959075 27.373003
H 4.584628 11.892563 27.909475
H 5.652807 14.070757 25.033714
H 6.144587 14.665753 26.998896
H 7.039602 11.793335 27.770860
O 8.059240 11.778093 27.499156
H 8.062484 13.496743 27.671278
H 7.776930 14.697533 28.711126
O 7.937120 14.508581 27.755987
H 10.978109 14.332279 26.628727
H 9.537994 13.622382 24.741905
O 11.106148 13.660394 25.894032
H -0.712272 9.273892 33.881793
O -1.692167 9.480739 34.042805
H -2.138333 8.971210 33.301233
H -1.244142 11.111763 33.136165
O 0.960741 8.667727 33.024943
H 1.445260 9.102465 32.293599
H 1.536127 8.759920 33.881205
H 1.220095 11.032035 30.604002
H 2.445329 9.317396 30.195035
O 2.470208 9.943740 30.976934
H 3.419311 10.408900 30.981519
H 6.372609 8.922707 34.142563
H 5.718477 11.147368 31.395130
O 7.006596 8.584791 33.469181
H 7.172704 9.386078 32.904493
O 7.349340 10.976065 32.157218
H 8.022422 11.066715 31.427932
O 8.816998 10.174654 29.736336
H 8.214251 9.346338 29.651979
H 9.790770 9.838156 29.710411
H -0.266734 11.755878 32.119772
H -1.019433 13.667059 33.155564
O -0.655338 11.940634 33.043637
O 0.431051 11.722370 30.548097
O -1.191573 14.636133 33.150332
H -0.223946 11.370816 29.875774
H -1.708710 14.899382 32.351503
H 1.171600 13.058055 29.693716
O 4.873937 11.341196 30.887228
O 4.664695 14.654028 33.801140
H 5.151865 13.216585 31.100735
H 5.143899 14.412994 32.251509
O 5.314957 14.213613 31.301956
H 5.080562 11.316512 29.918980
H 6.670909 15.149796 30.666549
H 2.607055 15.044953 30.086518
H 7.536332 11.655355 32.917132
H 9.020151 13.252993 34.158318
O 8.153533 12.786043 34.312628
O -1.192671 9.782804 38.669065
H -1.903783 8.990032 37.295789
H -2.183298 8.902344 35.720940
O -2.495057 8.551900 36.587607
H 1.779667 10.050928 35.378282
H 1.903471 8.635947 35.983238
O 2.379665 9.247974 35.340131
H 4.154990 9.539548 35.173769
O 5.077148 9.967745 35.059491
H 5.513160 9.835071 35.952141
H 6.127174 7.557155 37.451805
O 6.783867 9.365591 37.213549
H 6.812832 9.774967 38.105670
O 11.083897 7.709699 39.216177
H 11.035072 11.290409 38.518693
H 8.589090 8.470074 34.377762
H 9.773755 11.210003 36.662851
H 7.623228 9.748802 36.837678
H 11.065346 8.485933 34.410740
H 9.469992 9.331713 35.408145
O 9.436474 8.441688 34.951621
O 9.026411 10.811364 36.078823
H -0.604669 11.452333 37.925905
H 0.550940 11.885096 34.370884
H -1.960006 12.971355 37.169049
H -0.047003 12.853244 38.217361
O -0.271429 12.245969 37.476377
H 0.658811 11.949890 35.926922
O 1.197942 11.784511 35.125566
H 1.970506 15.186081 36.932733
H 4.261574 11.770318 35.245898
H 4.322691 13.919386 34.353543
H 5.100935 14.984848 37.759661
O 3.502394 14.209725 37.637389
H 6.603077 14.256439 39.076621
H 3.638456 13.494089 36.953661
H 3.351878 13.713155 38.457322
O 3.799670 12.637325 35.345186
H 2.781568 12.452816 35.168420
H 8.694081 11.522681 35.483978
H 7.559948 13.559130 34.597735
O 11.400692 11.679174 37.725390
O 0.149839 9.907085 43.254763
H 0.499383 9.217675 41.574101
H -1.366308 10.910284 43.140544
H 0.746753 8.130121 40.412510
H 0.094703 9.178490 43.895578
H 1.029506 10.402421 43.507715
O 0.855528 9.079201 40.686624
H -0.410131 9.552507 39.300004
H -2.555571 7.917904 40.871797
H -1.933203 9.928436 39.289717
H 2.380940 10.189155 40.719485
O 3.211548 10.746941 40.972437
H 4.035203 10.206064 40.865272
H 3.362690 10.334171 44.004918
H 3.071725 11.145517 42.697658
O 5.541101 9.284691 40.808427
H 5.676935 8.368193 40.453953
H 5.802014 9.173677 41.779554
H 5.671302 8.673651 43.662613
H 3.596288 7.931172 44.124840
O 6.490802 8.482909 43.136135
H 6.610191 10.362804 40.065032
O 2.828322 11.095471 43.637747
H 7.237065 9.000646 43.560739
O 7.118928 10.982236 39.449377
H 10.312084 10.655550 40.746408
H 9.599680 10.046361 43.443345
O 10.084290 10.394028 39.799618
H 10.279648 9.439024 39.654066
H 8.115918 10.805687 39.566300
O 9.069432 9.525355 44.084219
H 9.478926 8.622926 44.106734
O -2.213583 11.385256 42.823046
H -1.889619 12.234985 42.390565
H -0.221272 13.735802 40.223516
O -1.631534 13.578383 41.384108
H -1.323184 14.331909 41.944975
H 1.418150 13.724695 39.872276
H -2.359799 13.982699 40.797257
O 0.457478 14.035213 39.564243
H 3.110887 12.245598 40.309048