18432
Timestep: 38000000
H -1.608611 2.698442 4.333508
H 0.812673 3.077627 5.176197
O 2.664678 3.239649 5.153125
H 3.136758 2.826046 4.362198
H 4.094968 1.167139 3.185709
O 4.196091 2.139153 2.973191
H 3.876419 2.248651 2.057418
H 5.800896 2.969353 2.940425
O 6.768765 3.373522 3.080831
O 3.491014 2.481401 0.434508
H 7.201998 0.692850 1.703837
O 6.909441 0.108616 0.941213
H 7.357576 2.637915 3.360973
O 8.362589 1.102077 3.391709
H 9.186869 0.985702 2.823837
O 10.558110 0.930134 1.833776
H 10.521806 1.673270 1.209379
H 8.979524 1.931619 4.882391
H 8.135692 0.169101 3.753518
H 10.282192 0.083337 1.308083
H 9.594050 3.426405 0.524482
H -0.040649 5.988468 2.417511
O 0.065415 5.423391 1.534009
H -0.690414 4.752140 1.492633
H -0.299071 6.975857 4.475280
O -0.635578 7.042319 3.539116
H 1.406941 5.062721 0.662856
H 6.553577 4.857225 4.222397
H 6.535762 6.434243 4.162425
O 6.599573 5.682957 4.798992
H 4.880423 7.592089 0.582531
O 8.103647 4.199126 0.966515
H 7.589011 3.996765 1.792963
H 8.250765 5.174196 0.897297
O 11.744752 6.464552 5.082291
O 8.487354 6.931732 0.401089
O -0.076476 0.195367 5.622975
O -0.427914 0.149531 10.002322
O -0.151610 2.846015 5.387186
H -0.190440 1.149549 5.461003
H 2.170631 0.730457 7.841204
H -0.274986 3.276355 6.264048
O 1.749690 3.772383 9.679495
H 0.167031 0.361206 9.260959
H 0.288917 0.076974 6.566175
H 3.210295 2.234342 6.407378
O 3.496599 1.615542 7.129088
H 3.921854 0.848871 6.614320
H 4.769720 2.278875 8.196245
O 5.628623 2.350894 8.742877
H 6.434470 2.149220 8.197117
H 6.021238 3.903061 9.393125
H 5.553102 0.484574 9.355272
O 11.589846 1.248201 6.886735
O 9.856074 2.297432 9.655364
O 9.358414 2.432005 5.672748
O 8.018714 1.513780 7.727529
H 10.764222 1.652534 6.488143
H 8.747193 2.106111 6.399412
H 8.604220 1.604210 8.546982
H 10.757723 1.849418 9.585705
H 7.801566 0.535692 7.552450
H 12.004983 0.123064 5.916677
H -1.971626 4.279538 8.402257
H 0.242462 4.222583 8.354402
H 1.238192 7.274265 6.383131
O -0.369364 4.490882 7.644031
H 0.009901 5.274461 7.205899
O 0.391771 6.757300 6.282364
H 2.482421 4.317680 9.235723
H -0.348069 7.301106 6.687061
O 3.359654 7.637248 9.729559
H 3.057097 4.196990 5.302497
H 7.178748 5.055649 9.222234
O 6.259228 4.896025 9.628443
O 3.807454 5.203209 8.534830
O 3.975749 5.535646 5.902995
H 4.750616 5.153235 8.875566
H 3.843757 5.260183 7.586350
H 3.528673 6.447206 5.901920
H 4.886250 5.723291 5.554624
H 3.590154 6.791383 9.222582
O 9.306144 5.174823 5.947029
H 9.415222 6.713540 8.800267
H 10.899743 6.002272 5.324133
H 9.455895 4.248498 8.817478
O 8.808483 4.901058 8.503198
H 11.500880 6.562419 9.069484
H 9.331074 4.171239 5.742500
H 8.433851 5.521270 5.552601
H 8.995827 4.987495 7.552276
O 9.972268 7.565613 8.899755
H -0.304763 3.186626 13.397128
H 0.274922 1.876477 14.044236
O 0.528072 2.819899 13.837410
H 2.035137 2.614367 12.334507
H 2.341510 2.634172 10.810612
H 2.020397 0.525879 11.768803
O 0.485617 0.101411 14.391543
H -1.126813 0.876922 10.201008
O 2.547588 2.164777 11.640823
H 4.111943 1.486130 11.995107
O 4.874373 0.933366 12.271883
H 6.135807 2.030411 12.892186
O 6.840756 2.746304 13.142040
H 6.984793 2.790125 14.097789
H 5.193261 0.413173 11.449929
H 5.115556 0.102488 13.635934
H 8.595424 2.479703 12.527435
O 9.512031 2.160942 12.393292
H 9.611082 1.369171 12.936028
H 11.044565 3.274207 13.114944
H 9.710860 2.164332 10.615881
O 9.561669 0.127960 14.188962
O 11.960108 0.509598 10.340442
H 8.784953 0.209117 14.843106
O -1.603789 4.076519 12.346194
H -0.826255 4.681351 12.160650
H 0.580141 6.115756 11.339684
O 0.731887 5.242624 11.736066
H 1.382593 5.377410 12.497083
H 2.219882 6.748475 14.416255
O 2.489278 6.001986 13.847877
H 1.431379 4.374331 10.422079
O 0.644568 7.683626 10.587273
H 6.307016 4.264389 12.558602
H 3.236234 6.387683 13.322293
H 4.993704 6.477577 12.180652
H 6.270488 5.086993 11.253977
O 6.066113 5.190775 12.214900
O 4.329260 7.237078 12.204724
H 3.945384 7.379131 11.304680
H 7.238469 6.020524 13.295837
O 11.560377 4.049179 13.593196
O 7.832715 6.498939 14.012663
H 10.783382 4.338592 14.231350
H 8.027174 7.434881 13.671054
H 9.074485 5.499445 14.781297
H -0.534141 1.252577 18.539457
O 0.390528 1.644811 18.391533
H 0.265662 2.306629 17.679766
H 2.172099 1.161381 18.299662
H 0.321529 3.360290 15.619648
O 0.386640 3.602084 16.572140
H 1.292193 0.085139 15.030511
H 0.540773 2.731430 19.746513
H 4.884401 3.316092 19.449735
H 6.007848 2.201282 19.050504
O 3.111653 0.738637 18.240819
H 3.848519 1.436674 18.410605
O 5.150122 2.622340 18.773961
H 6.735599 3.463549 16.024113
H 5.420102 3.936408 17.637727
H 11.025909 0.520804 14.931198
O 7.678873 1.268687 19.503288
O 7.512258 2.972761 15.641860
H 7.781789 0.420437 18.994102
H 7.477355 1.358332 15.901192
H 8.331104 3.636210 15.633370
H 10.969549 1.851883 19.007708
H 8.625509 1.664019 19.456771
H 10.969493 3.886537 19.239886
O 7.475170 0.354778 15.827346
O 10.338216 2.281024 19.670458
O 11.976075 0.750164 15.357700
O 0.418355 5.902908 19.562190
H 1.308664 4.071778 16.688025
H 1.359568 6.215381 19.434385
H -0.691535 4.902987 16.969685
H -1.122202 6.480924 16.834205
H -0.155128 5.948926 18.747737
O -1.251438 5.664230 17.377464
O 5.471251 4.358500 16.771407
O 2.742725 4.894649 16.435904
H 2.664415 5.069714 15.484749
H 7.227825 6.596136 15.628835
H 3.714622 4.681308 16.576327
O 6.781370 6.751822 16.497597
H 5.927286 5.255685 16.823099
H 7.493602 7.037145 17.164475
H 3.278823 7.546320 18.953981
O 3.021651 6.918281 19.644583
O 9.588616 4.793904 15.223731
O 10.728871 6.336193 17.146392
H 10.006330 6.893084 17.573359
H 10.000728 5.301764 16.009111
H 11.152355 5.806331 17.890953
O 11.628222 4.632874 19.075855
H 8.591951 7.463486 19.282507
H -1.098907 2.696209 21.298783
O -0.927099 0.966177 23.752609
H -0.700644 2.570437 24.491298
O 0.435005 3.342579 20.529451
H 1.843956 3.578938 21.706329
O -1.900659 2.200515 21.692781
H -1.475438 1.695272 22.429260
H -0.196384 0.356119 23.428851
H -1.710050 0.417957 24.063342
H 3.329620 2.653435 23.217257
O 3.692100 1.872272 23.718070
H 5.480103 1.981465 23.780170
O 6.503156 1.903354 23.824070
H 6.908881 2.827574 23.836397
H 7.188720 0.816845 22.621724
H 3.461147 0.158668 22.951122
H 7.652822 0.525401 21.134462
O 10.399674 1.294889 22.296280
H 10.488528 1.868322 20.576259
H 9.431189 0.932867 22.139169
H 10.585898 2.577417 23.637014
H 10.848594 0.534195 22.750634
O 10.484886 3.340163 24.302497
O 7.716577 0.180530 22.037472
O 0.960190 5.646038 23.768948
H 0.533422 6.230049 23.092766
H -0.148983 6.645800 21.004854
H 0.305248 4.912531 23.912336
O -0.324847 7.017487 21.869894
H 2.033910 4.611962 22.910827
H 0.359462 4.269720 20.160281
O 2.553790 3.958561 22.349426
H 2.942528 7.469999 20.490319
H 3.896195 5.326699 20.052129
H 3.689971 4.311691 21.199818
O 4.347132 4.590757 20.519276
H 5.876024 5.414950 21.385479
O 6.537834 5.913589 22.030901
H 5.329063 6.847437 22.899430
H 7.041265 5.252246 22.592477
H 4.528705 6.544282 24.167191
O 4.701539 7.253937 23.532119
H 8.629655 4.001305 23.992811
O 7.707501 4.364264 23.915534
O 11.623628 5.888885 23.758889
H 7.865097 6.785053 21.303900
H 11.216895 4.981001 23.959842
H 9.448276 7.032276 21.164175
H 11.343677 6.101989 22.010957
H 11.353089 5.602661 20.471421
O 11.089721 6.369302 21.093934
H 11.231909 6.568140 24.342269
O 8.514190 7.416135 20.960721
O -0.707558 3.576741 24.692774
H -0.228794 2.853410 27.568101
H 1.948379 3.179693 26.371512
O 0.335484 3.532354 27.079499
O -1.291786 1.872235 28.176078
H -0.422144 3.637592 25.648348
H -1.460975 0.886496 28.041004
H -1.325378 2.141977 29.135722
H 3.421634 2.067372 24.651723
O 2.963913 3.063574 26.115320
H 3.675517 2.876812 27.680556
O 4.258446 2.677609 28.480124
H 4.255813 1.659923 28.493730
H 5.938883 2.753255 27.845866
O 6.886023 2.806181 27.455123
H 6.928993 1.945575 26.936983
H 7.118130 0.959452 25.132533
O 7.466094 0.511301 25.938090
O 9.046641 2.607983 29.289576
H 10.389702 1.328290 29.114033
H 10.818957 2.971014 25.173643
H 8.326454 2.732817 28.649387
O 11.380260 1.120141 29.157119
H 11.614272 1.489697 28.288067
H 9.603014 3.450726 29.237536
O 11.742679 2.116689 26.599910
H 0.348879 5.707247 29.097810
H 0.221498 4.483092 27.460473
H -0.955385 6.185255 28.318187
O 0.040910 6.028990 28.242248
H 1.224640 6.770751 26.906282
H 1.357343 6.572461 25.375584
O 1.734485 7.077619 26.129042
H 2.424319 7.506516 29.020302
H 7.415169 4.738799 24.791855
H 4.928940 5.703967 26.069675
H 3.315973 3.943547 25.828543
H 6.895715 4.465588 26.655497
O 4.094184 5.518897 25.506529
H 3.366910 6.084746 25.820926
O 6.881205 5.329949 26.163581
H 7.679321 5.825515 26.600200
H 10.231602 7.387591 26.143753
H 8.648311 6.992290 27.940469
O 9.140425 6.445746 27.250798
O 10.647860 4.822260 28.803823
H 11.611751 4.542329 28.498149
H 9.770918 5.805607 27.744808
H 2.190385 2.484128 33.676122
H -0.533693 3.578257 30.741602
O -1.340790 2.973163 30.615774
H -1.560321 0.892387 33.207581
H -1.376096 2.339683 31.367487
O 2.870751 2.450763 32.911093
H 3.054610 1.494809 32.806954
H 3.219567 3.453787 31.424529
H 6.354300 0.956835 31.322599
H 3.747844 3.497225 29.895401
H 3.991884 3.492228 33.785786
H 4.978017 0.126967 31.648740
O 5.789635 0.166027 31.024600
O 7.503238 2.446612 31.521458
H 8.089697 2.551520 30.731020
H 8.195414 2.327474 32.193686
H 10.864056 2.296623 32.460810
O 10.010196 2.164582 32.959529
H 10.003305 2.974192 33.519709
H 10.312837 0.705637 33.765144
H 11.971929 2.302995 30.676944
H 1.608112 4.570454 30.443138
H 0.251560 6.314344 33.552911
H 0.576079 5.525287 31.323413
O 0.140286 6.618534 32.602512
O 0.670927 4.888910 30.547743
H 0.744795 7.433968 32.584603
H -1.747233 7.520819 32.288930
O 3.399952 4.027379 30.667815
H 6.492455 3.863245 31.597572
H 5.056618 4.524028 31.324808
H 5.210068 4.436374 33.513371
O 5.885100 4.638443 31.922609
H 6.861148 6.421461 31.745554
O 4.686188 4.049496 34.274853
O 7.488784 7.163983 31.527913
H 10.847081 5.314673 29.635139
H 9.012074 6.933497 32.417316
H 9.667722 6.020141 33.434525
O 9.895347 6.816093 32.924002
H 11.195438 6.167665 31.884756
O 11.808227 5.851826 31.178861
H 7.499317 7.634510 29.781377
H 11.856632 4.874066 31.308702
H -0.256571 0.177953 34.959175
H -1.634637 2.447318 38.514755
O -0.866251 0.959933 34.834975
H -0.178115 1.738576 34.851489
O 1.063840 2.963796 34.994470
H 1.788010 1.762464 37.836015
H 1.576184 2.646143 35.782060
O 2.090635 1.429602 36.975975
H -1.858136 1.237508 36.361777
H 5.797815 0.280168 35.171002
H 3.081888 1.330451 37.149134
O 4.791793 1.436053 37.928176
H 5.413715 0.671776 38.010918
H 5.508955 1.969542 36.503305
H 5.424639 2.599005 35.068258
O 5.911151 1.959914 35.619541
H 7.393431 3.016509 36.060405
H 4.800365 1.928034 38.787751
O 11.366983 0.094173 36.761590
H 8.210484 0.343566 37.603139
O 8.302139 3.317614 36.409341
H 8.640972 2.489630 36.895966
O 8.967871 1.015956 37.791358
H 9.813832 0.578523 37.468415
H 0.794544 3.938118 35.112274
H 1.782498 7.538591 37.576159
O 2.079755 7.255824 36.660939
O 0.394836 5.634030 35.051046
H 0.923248 6.281295 35.633845
H -0.581790 5.725433 35.389748
H 7.132640 6.540569 37.475857
H 2.899833 6.667163 36.707747
H 3.418788 5.019563 38.360551
H 4.996897 6.175212 36.848925
O 4.195979 5.536181 36.722516
H 4.339456 5.028516 35.906376
O 6.345841 7.155705 37.559762
H 10.658673 4.752195 34.877945
O 12.009297 5.666957 35.531101
O 9.779546 4.426411 34.410450
H 8.470099 4.816764 37.227050
O 10.517660 7.350404 36.930446
H 9.226926 4.081303 35.186062
H 9.251744 6.318300 37.314095
H 11.069496 6.817980 36.320958
O 8.484833 5.731002 37.667391
O 0.088973 3.219723 42.977414
H 1.264926 2.172914 42.216106
H 1.667200 2.098856 40.151336
O 1.853648 1.548411 41.693779
H -0.836995 3.267999 42.530386
H -0.088690 2.746749 43.803496
O 1.459178 2.539403 39.282342
H -1.863404 3.334899 40.764488
H 1.950284 3.432376 39.272108
H -0.168468 2.857737 39.322288
O -1.195464 2.979389 39.242337
H 2.699093 1.476380 42.196918
H 5.382117 1.972683 41.155055
O 5.325813 2.687280 40.482421
O 5.644197 0.627413 42.248610
H 6.078382 1.068219 43.045270
H 6.971684 3.214994 40.801352
H 4.872972 3.493883 40.886594
H 10.863440 0.577475 40.810772
H 8.395027 2.521424 40.922994
O 9.358806 1.133208 40.385491
O 7.911372 3.338958 41.176279
H 9.252473 1.190345 39.363921
H 8.662429 0.401604 40.607900
O 11.756853 0.289451 41.247566
O 0.298884 6.005741 42.486602
H 0.258048 4.996722 42.581962
H -0.404704 6.213495 41.793093
H 1.995853 6.646591 42.883973
O -1.397464 7.033372 40.476780
H 0.321685 7.184371 39.774782
H -0.454201 6.311787 43.930080
H -1.935867 6.511416 39.793912
H 1.776649 6.530588 39.398518
O 1.261996 7.357221 39.385203
O 2.958820 6.660529 43.255527
H 3.866391 5.706554 41.965613
O 4.528817 5.242636 41.353857
H 5.223346 5.945432 41.094293
H 3.527614 5.042788 39.930032
O 6.269704 6.929419 40.140579
H 7.181549 6.558645 40.337753
O 2.841226 4.906335 39.155642
H 6.274802 7.129108 39.161921
H 8.252054 3.885752 42.888974
O 8.411666 4.126481 43.812393
H 11.359588 6.750301 42.066554
O 11.595560 6.438625 41.155172
H 8.774645 4.764373 40.464744
O 9.037957 5.691295 40.226577
H 10.678953 6.037913 40.862115
H 9.851312 7.092834 43.902752
H 8.122527 5.092312 43.921882
H 8.933921 5.683681 39.247629
O 10.682427 7.554476 43.582657
H 11.578305 7.637127 39.901482
H 2.202526 0.247180 46.410305
H -1.099815 0.444342 45.743136
O 2.415753 0.744163 45.584571
H 0.812152 1.468517 45.409551
H -0.123979 2.656423 45.844775
O -0.152568 1.772409 45.348730
H 1.612667 0.881694 48.489262
H 2.844487 0.080437 44.999621
H 3.665881 1.966262 45.860475
O 4.337832 2.731977 45.915074
H 4.480076 2.929945 47.634921
H 5.143399 2.464451 45.396352
O 6.668930 2.003869 44.614403
H 7.127878 1.303336 45.156325
O 4.326403 3.416405 48.493914
H 7.291580 2.781982 44.459443
H 3.346601 3.294529 48.645501
H 11.344909 0.681194 47.596370
H 9.247262 0.929136 48.351747
O 9.599653 0.078646 47.885996
O -0.141755 7.446627 48.744698
H 0.788152 7.506699 48.363725
H -1.812240 6.486584 44.821694
O 0.270788 4.379997 46.392163
H -0.059944 4.499586 47.374310
H 1.978648 4.681972 45.805643
H -0.185874 5.044736 45.866464
O -0.833214 6.234918 44.851464
H 2.926719 6.044772 43.988285
H 3.333895 4.108295 45.286281
H 3.138903 7.050961 47.744236
H 6.184940 6.323290 47.092708
H 3.834009 5.659294 46.597419
H 4.409094 5.010300 47.916697
O 2.759151 4.904935 45.270466
H 7.498812 6.832769 47.795637
O 4.411055 5.873876 47.418908
O 7.017567 6.879694 46.908966
O 8.188859 6.697046 44.423218
H 11.791252 5.802960 45.420832
H 11.427993 7.369028 44.279888
H 7.800837 6.595771 45.318378
H 10.990446 4.391622 48.522638
O 10.949493 4.348367 44.909029
H 11.598754 3.997392 44.200344
H 11.548388 4.003819 46.397861
H 7.680946 7.453261 44.023463
H 9.962576 4.242911 44.580794
H -0.669170 2.596668 51.734283
H 2.180486 1.023655 52.352551
O 1.787226 2.472010 49.217543
H 2.165197 2.342811 50.098806
H 1.076103 3.161240 49.356687
O -1.447562 2.021914 51.393605
H -0.898526 0.390759 51.032401
O 1.660035 0.270843 52.771145
O 3.062156 2.291151 51.613572
H 3.004048 3.105131 52.201429
H 4.043818 2.038225 51.508560
O 5.497975 0.899381 51.804989
H 6.668986 2.124613 52.171484
H 7.171801 3.380624 51.480242
O 7.326595 2.872028 52.300103
H 5.015049 0.386104 52.519721
H 5.901403 3.662168 49.351105
H 5.761903 0.231538 51.154798
H 8.398500 1.547370 51.871450
H 9.031402 1.769208 50.067291
H 9.875739 0.865614 51.771729
O 8.878009 0.775392 51.453030
O 11.618250 0.821562 51.984253
H 8.019443 2.732197 49.393842
O 8.897561 2.293896 49.250861
H 11.806939 1.464463 52.720732
H -0.294790 5.854802 48.936581
O 0.217660 4.351946 51.733411
H 1.205659 4.571640 51.949947
H -0.024128 4.717187 50.855346
H -0.872201 5.353174 52.935117
H -1.328263 4.601853 49.133522
O -0.343195 4.837615 48.986703
O -1.404691 5.904082 53.580133
O 2.740814 4.709244 52.856853
O 6.770502 3.827713 49.875932
H 3.272952 5.583605 52.787891
H 7.159420 4.724417 49.559966
H 9.027929 5.613885 49.182016
H 9.904591 3.793460 49.449604
H 9.927561 7.346265 51.519200
O 11.490740 6.442702 51.235912
H 8.266004 6.681161 50.079269
H 11.310735 5.793879 50.475244
H 8.379004 7.375540 53.051061
O 10.444157 4.625114 49.308484
O 8.944061 7.618929 51.464078
O 8.104207 6.089901 49.311856
H -1.665544 0.673776 58.279912
H -1.846525 1.799760 56.487906
H 2.252415 1.213887 57.999589
O 1.504064 0.666768 57.561807
H 1.241822 1.290227 54.276317
H 0.130381 1.987119 55.172116
O 1.119096 1.941186 54.997271
H 1.298625 0.983669 56.659669
H 2.004223 3.598445 55.383826
O -1.581617 2.265467 55.623970
H -1.729780 3.878460 55.799455
H 4.342146 2.249442 58.057910
O 5.747001 1.684694 57.340968
H 5.620107 0.909812 56.694383
H 6.030482 2.494547 56.853529
H 6.651395 0.757644 58.389401
H 3.157918 3.387624 58.408473
H 11.991817 3.667712 58.001217
O 11.686319 2.562494 54.139266
H 8.946358 3.200417 55.320970
H 9.021542 1.574071 55.496804
H 10.003417 2.773778 57.308115
O 9.467324 2.467993 55.709096
H 10.829041 2.354229 54.591585
O 10.360625 2.969578 58.245315
O 8.371329 0.078448 55.061755
H 2.700589 6.552376 58.387482
O -1.928696 4.860980 55.821609
H -0.359179 6.396630 58.324103
H -0.184166 7.175242 53.892203
H 2.342905 4.768658 53.770445
O 2.076091 4.601159 55.465754
H -1.304504 5.431790 56.384289
H 1.900798 4.779102 57.350504
O -0.653399 6.725043 57.438653
H -1.677522 5.382376 54.393714
H 0.102811 7.286255 57.120012
O 2.251507 4.993271 58.262701
O 3.153486 7.450340 58.191530
H 7.371302 4.443927 55.261545
O 6.678791 4.127838 56.667286
H 6.385954 7.515159 54.309460
H 7.114657 4.120090 57.566226
H 3.025455 4.814463 55.729447
H 4.182758 6.224146 57.089776
O 4.592180 5.694965 56.433713
H 5.876976 4.719646 56.688161
H 5.045918 6.323777 55.778755
H 4.742044 7.660985 54.257477
H 7.536404 7.230018 58.395972
O 7.946499 4.617616 54.449941
O 9.915740 7.614912 56.021922
H 8.881706 6.948408 57.647165
H 7.558310 4.057871 53.720963
H 10.793018 7.099042 55.905921
H 8.095971 6.132444 54.069956
H 9.331298 7.355395 55.247008
O 8.051768 7.172260 53.967502
O -0.101984 9.524774 2.409644
H -0.638732 9.275968 1.591307
H 0.869891 9.572003 2.163756
H -1.319378 10.861433 3.261636
H -0.302258 7.939613 3.246867
O -1.916523 8.849262 0.494114
O -1.937024 11.320031 3.866037
O 2.762569 9.738644 1.701499
H 2.911004 8.905986 1.173794
O 4.021577 9.409561 4.086207
H 3.209628 9.597139 2.594206
H 4.182197 10.366135 4.369390
H 4.955663 9.002940 3.959698
H 5.969136 8.794608 0.583080
O 5.860449 7.798960 0.779031
H 3.228536 11.117603 1.007281
O 6.352731 7.947890 3.476963
H 7.250066 8.425599 3.724770
H 6.461250 11.366591 0.941681
H 6.245726 7.906260 2.507364
O 6.616156 10.487495 0.486866
H 8.147737 10.216657 4.567576
O 8.594584 9.309199 4.492050
H 9.429564 9.525504 4.001779
H 10.311212 10.052268 2.251463
O 10.760188 10.015020 3.124580
H 10.839406 10.986993 3.451454
H 9.317628 8.922358 0.779629
O 9.294435 9.919892 0.741817
H 7.623690 10.324566 0.586693
O 1.074804 14.495283 4.332642
H -0.733177 14.231140 4.294202
H 1.571909 14.228767 3.517038
H 1.993007 14.736785 1.390761
O -1.752654 14.049101 4.159965
H 1.616090 14.107346 5.077942
O 2.381634 14.131204 2.130763
H -1.788014 13.054549 4.091475
H -1.634357 15.081144 0.542922
H 2.680992 13.293555 1.633585
O 4.621033 12.125728 4.388910
H 4.712071 12.670933 3.590284
O 6.032723 12.881578 1.866791
H 6.878684 13.242674 2.386461
H 6.507413 11.762318 4.707377
H 4.156258 12.734960 5.032797
H 5.945998 13.471517 1.063276
O 3.194334 11.941619 0.453332
O 7.535620 11.744242 4.867587
O 11.264123 12.463636 4.494916
H 7.675176 14.608609 3.783469
H 7.923698 12.434787 4.290643
O 8.187290 13.797557 3.435331
H 9.033307 14.136499 3.002211
H 10.181237 14.570813 1.063648
H 11.272807 14.503073 2.257278
O 10.323538 14.803795 2.039980
H 11.959660 12.001690 5.023238
H 11.856968 13.141704 4.069717
H -1.840109 11.082120 5.577295
H -1.896626 9.998040 6.733520
H -1.621411 8.494739 8.098617
O -1.570124 8.373136 7.104144
O -1.933074 8.635757 9.619197
H 1.459223 7.799386 10.034768
H 7.434833 10.263156 9.869110
H 3.175061 8.605691 5.416318
H 3.655237 8.441971 9.267297
H 3.508465 8.544463 6.905226
O 4.373631 9.692389 8.349285
H 3.728124 10.465098 8.299396
H 5.257576 10.068275 8.628503
O 6.758625 10.816882 9.398823
O 2.909497 8.086352 6.214391
H 7.315446 11.130019 8.642691
H 9.210511 8.807145 10.032035
H 11.530124 9.149740 6.654732
H 9.337013 9.198064 6.086993
H 9.331634 10.288353 7.163453
O 9.840612 9.415221 6.956743
H 9.875290 8.025490 8.033261
H 1.482938 11.841500 8.280440
H -0.928365 12.006681 7.586640
H -0.523486 12.410990 9.103267
O -0.312976 12.587004 8.166125
H 0.228361 14.379827 7.877546
O 2.507335 11.841987 8.243401
H 2.776955 12.276119 9.119664
H 2.815377 13.033003 7.070710
O 3.064896 13.664511 6.330102
O 4.161413 15.017726 9.163564
H 4.876446 14.492423 9.591636
H 3.503658 14.421214 6.757011
H 3.468968 15.145050 9.867598
O 8.354802 11.918552 7.392490
H 7.670414 14.378306 9.558784
O 11.014032 14.233392 9.629082
H 9.912602 14.717613 6.691655
H 10.564384 13.405420 5.991529
H 9.005687 12.683288 7.368302
H 9.306144 14.743541 9.448945
H 11.076499 13.947643 8.692464
O 10.281688 13.817398 6.855743
H 7.958713 11.940219 6.465873
O 8.363261 15.087291 9.314279
H 11.699485 15.020039 9.787240
H 0.346151 8.995940 11.763744
O -0.117671 9.693910 12.298398
H -0.909059 9.189361 12.710305
H 1.013597 10.230777 13.382300
O 1.690826 10.563755 14.085636
H -0.253271 11.322283 11.382945
H 2.534058 10.844027 13.656866
H -0.141251 8.036262 10.082855
H -1.700129 8.235830 14.455911
H 5.038467 8.694854 12.974289
O 5.529964 9.452226 13.428236
H 6.528534 9.406031 13.242982
H 4.658681 10.845609 13.014410
O 11.360260 10.710495 11.713854
O 8.262642 8.971169 13.176870
H 8.448978 8.961797 12.187513
H 9.929802 9.984650 10.873584
H 9.129276 9.293983 13.608780
O 9.011122 9.534816 10.666468
H 11.288045 10.384333 12.584709
O 10.568698 9.886722 14.389508
H 10.102803 10.614393 14.885378
H 2.225843 14.968366 13.183266
O -0.190989 12.242340 10.990458
H -0.879702 13.729878 12.005050
H 0.824035 12.367899 10.976561
O -1.377054 14.581038 12.054591
H 1.482730 14.699416 14.533827
O 2.369275 14.886567 14.138200
H -1.770824 14.700085 12.956380
O 3.933787 11.537980 12.969521
O 2.576933 12.642936 10.909693
H 2.754809 13.598354 11.107972
H 3.131985 12.136987 11.584479
H 4.317607 12.331077 13.533887
H 6.036308 14.257798 13.408757
H 6.385842 13.826223 11.152453
O 6.733918 14.471486 12.731587
O 4.915774 13.728478 14.427710
H 4.043650 14.255059 14.477076
O 6.266455 13.539561 10.193333
H 6.408923 12.533445 10.091402
H 11.247260 11.721906 11.803225
H 11.077956 13.598902 11.163210
H 8.251774 13.830544 13.254146
O 9.126979 13.579913 13.712280
H 9.840724 13.447233 13.007432
O 11.179807 13.216443 12.053137
H 1.876248 9.161303 14.969400
O -0.810468 7.962801 15.944220
H 2.348261 8.519753 16.333741
H -0.875007 8.812501 16.467768
H 0.009218 10.445926 18.729770
O -0.846654 10.394801 17.190699
O 1.869301 8.301561 15.458118
H -0.245052 11.064409 16.755708
H 1.512798 10.851756 19.359783
H -1.827925 10.661074 17.107143
H 1.303975 11.473892 15.229487
O 0.509091 10.800206 19.544746
H 0.211890 7.986477 15.712914
H 5.471756 9.124117 15.019987
H 5.979108 8.160787 16.194132
O 3.465103 8.794547 17.722969
H 3.392765 9.667922 18.233550
H 4.252675 8.889614 17.109469
O 5.478871 9.018216 16.004285
H 6.352395 10.416164 16.666453
O 3.282762 11.023936 19.198951
O 7.002105 11.175788 16.926076
H 11.745200 9.517166 19.488170
H 11.895792 11.059601 19.094113
O 11.894784 8.842689 16.446777
H 11.553374 7.916607 16.627146
H 10.958961 9.371948 15.141745
O 11.375498 10.205276 18.821466
H 7.466655 10.930512 17.760473
O 8.706800 10.443674 18.879845
H 9.736687 10.439231 18.935432
H 8.650496 8.764907 18.379497
H 11.688560 9.351681 17.271464
O 8.582819 7.737611 18.345889
H 0.014523 12.454446 19.688716
O -0.413012 13.381927 19.688251
O 0.943282 15.124844 18.095918
H 0.290659 14.879142 16.498469
H -0.850861 14.784623 15.347117
H 0.453975 14.546712 18.755005
H 0.529629 12.791501 15.676108
O 0.083685 14.522063 15.581330
O 0.973232 11.982275 16.024054
H 2.311694 12.592725 17.039926
H 2.383853 14.015018 17.850309
H 5.285420 13.713080 15.329150
H 4.771401 13.308710 17.330482
O 5.689801 13.488741 16.937705
H 7.294045 14.154636 17.647670
H 3.322230 11.875766 18.735700
O 2.946786 13.191976 17.621213
H 6.085441 12.542635 16.768790
H 8.445392 11.572184 16.084875
H 10.158267 12.990156 16.807923
O 10.599007 13.747710 17.360951
O 9.309561 11.889217 15.633138
H 8.861314 14.256094 17.783383
H 9.110900 12.546287 14.916545
H 11.029607 13.365799 18.167438
O 8.041964 14.767703 17.976195
H -0.365582 10.177158 22.271277
O 0.370460 9.640047 21.877686
H 0.459756 10.067240 21.007878
H 2.083592 8.799964 22.164870
H -0.106690 8.016117 21.895130
O -1.882722 11.139940 22.471998
H 4.205727 9.941255 21.585851
O 3.014469 8.593336 21.881698
O 4.814651 10.710860 21.380943
H 5.760839 10.374717 21.262093
H 5.321724 10.834350 24.541013
H 3.431320 8.016604 22.612537
H 5.429570 8.662110 24.493042
H 3.902862 11.081268 20.006950
H 8.350936 10.322680 19.794251
O 7.594053 10.072657 21.310645
H 7.871820 9.105554 21.272850
H 8.226843 10.491573 21.965719
H 10.485783 10.787973 22.940598
O 9.548615 11.069826 23.172368
H 8.864675 10.460715 24.536593
O -0.906112 13.650757 22.366230
H -0.578647 13.634811 20.651791
H -0.139178 13.682162 23.050494
H -1.531400 12.118242 22.457403
H -1.419773 14.516220 22.555089
O 0.839178 13.882095 24.393263
H 4.937736 11.516556 23.232084
O 5.043341 11.742842 24.159225
H 6.333515 13.452467 23.926408
O 6.818794 14.321947 24.030780
H 9.622455 12.033521 23.469670
O 9.557019 13.694151 24.241909
H 10.326115 14.990155 23.365123
H 8.629151 13.972962 24.391286
O -0.495401 10.660161 28.289579
H 0.985109 10.085925 27.366218
H 1.691072 8.921993 26.452800
O 1.878125 9.782465 26.973848
H -1.091349 10.095845 28.811906
H 2.521587 8.948529 28.298417
H 2.305492 11.122350 25.895353
H -1.082598 11.211270 27.718525
O 2.912897 8.395289 29.042223
H 5.340267 8.752247 26.777953
H 5.752603 10.492120 28.079671
O 5.638371 9.354237 25.195099
H 6.661815 9.536764 25.200157
O 5.389456 8.863869 27.761437
H 4.529265 8.587493 28.142178
H 6.892186 8.378126 28.531583
O 6.027065 11.467927 28.258413
O 10.466174 7.919589 25.337615
O 11.981005 9.980816 29.182529
H 9.595227 8.356338 25.033569
H 8.460575 10.616097 26.069093
O 8.395475 9.967974 25.273422
H 8.988936 11.326118 28.146016
O 7.719098 7.970835 28.919941
H 11.941564 9.267447 25.512577
H 8.765121 9.477301 29.321499
H -1.827667 13.078163 26.494026
H 1.455592 13.174326 24.823138
H -0.734920 15.030994 27.290279
O -1.055567 14.646404 26.411167
H 0.261325 14.235705 25.133347
O 2.642072 11.929325 25.455710
O 2.366810 14.183607 29.378540
H 0.896283 15.137442 29.021988
H 2.904488 13.781611 28.608743
O 6.154351 15.062886 26.610318
H 3.409208 11.711559 24.892041
H 3.597269 12.861737 26.649974
O 4.068973 13.270732 27.437447
H 4.740756 13.978987 27.123690
H 6.472847 14.594610 24.893611
H 7.005410 15.024421 27.091884
H 5.265139 12.005099 27.883544
H 8.855711 13.718983 27.653576
O 8.745456 14.670749 27.890464
H 10.110479 13.689039 25.117183
O 8.574303 11.744364 27.378836
H 7.577974 11.781429 27.548448
O 11.658363 14.029260 26.261615
H 11.476061 14.649934 27.016876
H 8.694475 14.664298 28.860458
O 1.484198 9.196908 33.065588
H 1.947734 9.758790 32.402315
H 2.146025 9.143714 33.839397
H -0.129167 9.591053 33.762528
O -1.075562 9.859395 34.094484
H -1.634833 9.415526 33.372774
O 2.811533 10.321523 31.011168
H 2.887082 9.581254 30.387434
H 3.769974 10.722667 31.056173
H 6.474752 9.922266 33.461912
O 6.856162 9.756538 32.551634
H 6.097655 10.815482 31.416388
H 5.763192 11.375477 29.984074
H 7.155162 8.038636 31.931389
H 7.769520 10.283910 32.592685
H 9.340150 11.040308 31.270325
O 10.765622 9.459590 33.633966
H 10.158771 10.136562 33.163971
H 10.321017 8.572703 33.409057
O 9.346761 11.270976 32.236307
O 9.286871 10.337591 29.587692
H 10.298103 10.103271 29.442268
H 1.628012 11.522155 30.591701
H -0.682717 11.535667 33.269913
H 0.346952 11.649540 29.639733
H 1.799204 13.424653 29.707531
O 0.813038 12.106191 30.427787
H 0.188068 12.237410 32.122632
H -0.577756 13.986534 33.226827
O -0.052134 12.301924 33.078089
O -0.887938 14.916451 33.383124
H -1.175542 15.189540 32.437435
H 3.360814 15.234396 30.253291
O 5.466882 11.433722 30.905342
H 5.981405 13.077189 31.206539
H 6.120905 14.359316 32.245145
O 6.171102 14.077767 31.317365
H 4.827201 15.115045 30.962790
O 5.700445 14.836721 33.957317
H 7.634670 14.897949 30.684619
H 9.515169 12.259686 32.270206
O 10.030477 14.006376 32.470404
H 9.592538 14.383357 33.275728
H 11.016049 14.117875 32.621351
H 9.116615 14.957959 31.120773
H -1.702976 9.273473 35.738857
H -1.546508 9.279620 37.344563
H 2.453417 10.234855 35.400098
O -0.939317 10.127798 38.870551
H 2.569869 8.673005 35.779676
H -0.096707 11.516130 37.857703
H 6.725795 7.991102 37.172102
O 2.966568 9.402440 35.259268
H 4.796163 9.783500 35.139138
O 5.641284 10.324810 34.922543
H 6.377606 10.123781 35.568838
H 7.254380 10.133884 37.532434
O 7.401275 9.565430 36.705363
H 11.219864 7.786970 38.400381
H 10.441020 8.259749 36.595292
H 8.379004 9.728054 36.463475
H 10.455810 9.781369 35.160012
H 10.872572 10.594004 36.536099
O 10.243367 9.918127 36.129599
H 11.152691 11.524712 38.534815
O 7.530018 10.868189 39.073539
H -1.536358 13.120706 37.197337
H 1.093213 12.062492 34.446850
O 1.774727 11.974485 35.181759
H 0.414612 12.925825 38.168145
O 0.070934 12.367351 37.389452
H 1.224858 12.159932 36.008132
H 5.619098 15.127704 38.088194
H 7.139587 14.922233 38.588658
O 4.567418 12.768313 35.399284
H 3.541374 12.509465 35.257814
O 4.224159 14.273927 37.543714
H 5.204466 14.081784 34.356432
H 5.012696 11.864811 35.212867
H 4.366852 13.548386 36.870381
H 3.973844 13.930054 38.402358
O 8.403318 13.656234 39.108485
H 9.445923 14.303810 36.151346
H 10.629428 13.458553 36.964404
H 8.906861 13.817641 38.298102
O 10.025266 14.275022 36.977952
O 11.689624 11.886173 37.776589
H 7.599375 14.891071 34.436441
O 8.605397 14.888271 34.629429
H 8.074906 12.701790 39.085459
O 0.582572 10.062432 43.242677
H 1.041357 9.661775 41.507188
H -0.884795 10.786938 42.971483
O 1.181927 9.632318 40.549812
H 1.391563 8.697593 40.214716
H 1.360094 10.692966 43.485786