#Generated from CIF

27648 atoms
2 atom types

0.0 67.6798533721 xlo xhi
0.0 51.9277324739 ylo yhi
0.0 59.9609806330 zlo zhi

Masses

1 15.999 # O
2 1.008  # H

Atoms # atomic

       1    1    60.614076680    43.302536110    -0.029980490
       2    2    61.081067668    42.523620123    -0.329785393
       3    2    61.081067668    43.577753092     0.761504454
       4    1    66.339792275    47.586574039     2.440411912
       5    2    65.392274328    47.628116225     2.596310461
       6    2    66.732335425    47.799477742     3.285861739
       7    1    66.204432569    43.328499976    -0.017988294
       8    2    67.145182530    43.172716779     0.029980490
       9    2    65.811889419    42.487270710     0.221855628
      10    1    57.744450897    43.312921657    -0.041972686
      11    2    58.685200859    43.198680645     0.071953177
      12    2    57.351907748    42.689788867     0.569629316
      13    1    63.463398507    47.638501772     2.506368990
      14    2    62.996407519    47.508682440     1.684903556
      15    2    62.996407519    47.093260581     3.141955385
      16    1    52.235310833    43.286957790    -0.053964883
      17    2    52.627853982    43.074054087     0.791484944
      18    2    51.294560871    43.245415604     0.101933667
      19    1    57.791826794    47.638501772     2.488380696
      20    2    58.265585768    47.093260581     1.852794302
      21    2    58.265585768    47.508682440     3.309846131
      22    1    63.517542390    43.219451738     5.012737981
      23    2    63.910085539    44.055488231     4.772894058
      24    2    62.576792428    43.375234935     4.970765294
      25    1    61.927065835    47.004983435     0.287812707
      26    2    61.886457923    47.918911527    -0.005996098
      27    2    61.013387815    46.771308639     0.461699551
      28    1    64.742547736    49.710418297     0.593613708
      29    2    64.701939824    49.918129227     1.523008908
      30    2    63.835637701    49.746767710     0.299804903
      31    1    59.402607305    46.018356518     0.923399102
      32    2    59.267247598    45.717175670     0.023984392
      33    2    59.267247598    45.234247758     1.463047927
      34    1    65.006499164    50.224502849     3.387795406
      35    2    65.838961360    50.655503028     3.207912464
      36    2    64.525972205    50.842442865     3.933440330
      37    1    56.181046284    45.462729781     0.665566885
      38    2    56.817236906    44.829211445     0.341777590
      39    2    56.444997712    46.293573501     0.263828315
      40    1    61.886457923    49.850623175     3.165939777
      41    2    61.053995727    49.788309896     2.704240227
      42    2    62.366984882    49.061321641     2.908107561
      43    1    67.497117768    45.426380368     5.582367297
      44    2    67.632477475    45.353681543     6.529750791
      45    2    67.632477475    46.355886779     5.390492159
      46    1    59.104815950    43.868548394     2.782189501
      47    2    59.064208038    42.954620302     2.494376794
      48    2    58.191137929    44.102223190     2.962072443
      49    1    64.674867882    48.168164643     5.336527276
      50    2    64.810227589    48.801682979     4.628987705
      51    2    64.810227589    47.316549830     4.922796510
      52    1    62.170713308    43.780271249     2.200567989
      53    2    63.037015431    44.045102684     1.894766988
      54    2    61.933833821    44.434560678     2.860138776
      55    1    64.972659237    45.488693647     4.401135978
      56    2    65.013267149    45.286175491     3.471740779
      57    2    65.886337258    45.452344234     4.694944784
      58    1    61.906761879    45.945657693     4.035373997
      59    2    61.040459756    46.345501233     4.113323271
      60    2    62.143641366    45.706790124     4.928792608
      61    1    64.661331912    44.912295817     1.648926967
      62    2    65.175698797    44.252813614     1.181231318
      63    2    64.701939824    45.691211804     1.097285946
      64    1    54.976344894    43.302536110     4.970765294
      65    2    55.443335882    43.577753092     5.756254141
      66    2    55.443335882    42.523620123     4.670960391
      67    1    55.057560718    47.586574039    12.435907383
      68    2    55.450103868    47.799477742    13.281357210
      69    2    54.116810756    47.628116225    12.591805933
      70    1    60.614076680    47.560610173     7.483130383
      71    2    61.081067668    47.690429504     8.310591916
      72    2    61.081067668    48.105851364     6.853540086
      73    1    66.251808466    43.235030058     9.983503275
      74    2    66.725567440    43.780271249     9.347916881
      75    2    66.725567440    43.364849389    10.804968710
      76    1    55.003416835    43.235030058    10.001491570
      77    2    54.536425847    43.780271249    10.637077964
      78    2    54.536425847    43.364849389     9.180026135
      79    1    60.647916607    43.302536110     5.024730177
      80    2    60.174157633    43.577753092     4.239241331
      81    2    60.174157633    42.523620123     5.324535080
      82    1    60.559932797    47.654080091    12.477880070
      83    2    61.507450745    47.498296894    12.519852756
      84    2    60.167389648    46.818043598    12.717723992
      85    1    66.285648393    47.560610173     7.507114775
      86    2    65.818657404    48.105851364     8.136705072
      87    2    65.818657404    47.690429504     6.679653243
      88    1    52.099951126    43.219451738     4.982757491
      89    2    51.707407976    44.055488231     5.222601413
      90    2    53.047469073    43.375234935     5.024730177
      91    1    52.187934935    47.638501772    12.501864462
      92    2    51.714175962    47.093260581    13.137450857
      93    2    51.714175962    47.508682440    11.680399027
      94    1    57.744450897    47.545031853     7.477134285
      95    2    58.685200859    47.700815051     7.525103069
      96    2    57.351907748    48.386261119     7.716978207
      97    1    63.382182683    43.286957790    10.049460354
      98    2    64.322932645    43.245415604     9.893561804
      99    2    62.989639533    43.074054087     9.204010527
     100    1    52.154095009    47.570995719     7.465142089
     101    2    52.621085997    47.295778737     8.256627033
     102    2    52.621085997    48.349911706     7.165337186
     103    1    57.879810604    43.286957790     9.935534491
     104    2    56.932292657    43.245415604    10.091433041
     105    2    58.272353753    43.074054087    10.780984318
     106    1    53.697195665    47.004983435     9.707682764
     107    2    54.604105701    46.771308639     9.533795921
     108    2    53.737803577    47.918911527    10.001491570
     109    1    59.402607305    47.030947302     4.658968195
     110    2    59.267247598    46.402621739     5.366507767
     111    2    59.267247598    47.882562114     5.066702863
     112    1    56.181046284    47.082875034     5.264574100
     113    2    56.444997712    46.319537367     4.748909666
     114    2    56.817236906    47.119224447     5.978109769
     115    1    53.379100355    45.353681543     3.093986601
     116    2    53.426476252    45.441958688     4.047366193
     117    2    53.900235226    46.085862571     2.758205109
     118    1    53.433244237    49.679261658    10.661062357
     119    2    52.594014055    49.741574937    10.199362806
     120    2    53.913771196    50.463370418    10.403230140
     121    1    59.104815950    49.710418297     5.588363395
     122    2    58.191137929    49.746767710     5.294554590
     123    2    59.064208038    49.918129227     6.523754693
     124    1    59.104815950    45.384838182    13.083485974
     125    2    59.064208038    45.587356339    14.018877272
     126    2    58.191137929    45.421187595    12.789677169
     127    1    64.641027956    45.410802048     8.160689464
     128    2    65.277218577    46.044320385     7.836900169
     129    2    64.904979384    44.579958329     7.758950894
     130    1    50.895249736    44.927874136     8.454498269
     131    2    50.658370249    45.166741706     7.561079658
     132    2    51.761551859    44.528030596     8.376548994
     133    1    56.620965331    44.948645229     3.435764190
     134    2    55.984774709    44.346283533     3.825510564
     135    2    56.357013903    45.016151282     2.518361187
     136    1    56.600661375    49.237875932    10.846941397
     137    2    56.079526504    48.583586503    11.314637045
     138    2    56.553285478    50.016791919    11.398582418
     139    1    62.170713308    49.253454252     5.960121475
     140    2    63.037015431    48.853610711     5.876176102
     141    2    61.933833821    49.492321821     5.060706765
     142    1    62.258697117    44.948645229    13.425263564
     143    2    61.622506495    44.346283533    13.815009938
     144    2    61.994745689    45.016151282    12.507860560
     145    1    53.731035592    45.898922734     5.882172200
     146    2    54.563497789    46.329922913     5.708285356
     147    2    53.250508633    46.516862750     6.433813222
     148    1    53.710731636    50.276430581    13.455244054
     149    2    53.473852149    50.032370239    12.555829345
     150    2    54.577033759    50.676274121    13.371298681
     151    1    59.334927451    50.307587221     8.370552896
     152    2    59.375535363    49.601370059     9.018131487
     153    2    60.248605472    50.577611430     8.256627033
     154    1    64.992963193    45.945657693    10.954871162
     155    2    64.756083706    45.706790124    10.061452550
     156    2    65.859265316    46.345501233    10.876921887
     157    1    56.282566064    49.814273762     8.088736287
     158    2    56.241958152    49.611755606     9.018131487
     159    2    55.375656029    49.777924350     7.794927482
     160    1    61.893225909    45.519850287    10.661062357
     161    2    62.373752868    44.735741526    10.403230140
     162    2    61.053995727    45.457537008    10.199362806
     163    1    53.399404311    43.842584528     7.836900169
     164    2    53.534764017    44.470910091     7.129360597
     165    2    53.534764017    42.990969715     7.423169402
     166    1    59.070976023    48.147393550    10.211355002
     167    2    59.551502982    47.981224806    11.020828240
     168    2    58.238513827    48.516080450    10.499167709
     169    1    64.729011765    43.780271249    12.789677169
     170    2    63.862709642    44.045102684    13.095478170
     171    2    64.965891252    44.434560678    12.130106382
     172    1    50.942625633    43.842584528    12.154090774
     173    2    50.807265926    42.990969715    12.561825443
     174    2    50.807265926    44.470910091    12.861630346
     175    1    56.532981522    43.780271249     7.195317676
     176    2    56.296102035    44.434560678     7.854888463
     177    2    57.399283645    44.045102684     6.889516675
     178    1    56.532981522    48.105851364    14.690440255
     179    2    57.399283645    48.375875573    14.384639254
     180    2    56.296102035    48.760140793    15.350011042
     181    1    62.157177337    48.194128509     9.707682764
     182    2    62.197785249    47.285393191    10.001491570
     183    2    63.064087372    48.432996078     9.533795921
     184    1    53.778411489    45.519850287    14.396631450
     185    2    53.737803577    45.431573141    13.443251858
     186    2    53.264044604    44.787669259    14.732412942
     187    1    59.436447231    45.462729781     9.323932488
     188    2    58.800256610    44.829211445     9.647721784
     189    2    59.172495803    46.293573501     9.725671059
     190    1    56.181046284    45.924886600     9.060104174
     191    2    56.817236906    46.527248297     8.670357800
     192    2    56.444997712    45.857380548     9.977507177
     193    1    53.467084164    44.891524724    11.614441949
     194    2    53.426476252    45.602934659    10.972859456
     195    2    52.553406143    44.621500515    11.728367812
     196    1    59.003296170    44.948645229     6.559731281
     197    2    59.639486791    44.346283533     6.169984907
     198    2    59.267247598    45.016151282     7.477134285
     199    1    56.614197346    45.410802048    11.824305381
     200    2    56.350245918    44.579958329    12.226043951
     201    2    55.984774709    46.044320385    12.148094676
     202    1    62.191017264    45.353681543     6.829555694
     203    2    61.710490305    46.137790303     7.087387911
     204    2    63.023479460    45.415994822     7.291255245
     205    1    54.922201011    47.586574039     2.554337775
     206    2    54.529657862    47.799477742     1.708887948
     207    2    55.862950973    47.628116225     2.398439225
     208    1    53.778411489    51.320178004     2.242540676
     209    2    53.737803577    52.187371136     2.644279246
     210    2    53.264044604    51.398069603     1.439063535
     211    1    67.497117768    51.356527417     2.836154384
     212    2    67.632477475    50.728201854     2.128614812
     213    2    67.632477475    52.213335003     2.428419716
     214    1    50.976465560    49.274225345     0.935391298
     215    2    50.712514132    49.341731397     0.017988294
     216    2    50.340274938    48.677056421     1.325137672
     217    1    50.895249736    48.105851364     4.700940882
     218    2    51.761551859    48.375875573     4.395139880
     219    2    50.658370249    48.760140793     5.354515571
     220    1    53.764875519    49.757153257     6.907504969
     221    2    53.629515812    50.681466895     7.099380107
     222    2    53.629515812    49.684454431     5.966117573
     223    1    67.463277841    50.255659488     6.559731281
     224    2    68.099468463    50.852828412     6.169984907
     225    2    67.727229269    50.188153436     7.477134285
     226    1    53.379100355    49.237875932     4.143303762
     227    2    53.893467240    48.583586503     3.675608113
     228    2    53.426476252    50.016791919     3.591662740
     229    1    50.895249736    45.441958688     1.834806007
     230    2    51.761551859    45.571778019     2.224552381
     231    2    50.658370249    44.543608916     2.074649930
     232    1    50.976465560    49.736382164     9.323932488
     233    2    50.712514132    48.910731217     9.725671059
     234    2    50.340274938    50.375093273     9.647721784
     235    1    56.614197346    49.736382164     4.329182802
     236    2    56.350245918    48.910731217     4.730921372
     237    2    55.984774709    50.375093273     4.652972097
     238    1    53.467084164    48.194128509     0.287812707
     239    2    53.426476252    47.285393191    -0.005996098
     240    2    52.553406143    48.432996078     0.461699551
     241    1    59.436447231    49.793502669     1.828809909
     242    2    58.800256610    49.154791560     2.152599205
     243    2    59.172495803    50.619153616     2.230548480
     244    1    56.269030094    50.276430581     1.535001104
     245    2    56.505909580    50.032370239     2.434415814
     246    2    55.402727970    50.676274121     1.618946477
     247    1    63.436326566    47.638501772    12.483876168
     248    2    63.903317554    47.093260581    11.848289773
     249    2    63.903317554    47.508682440    13.305341602
     250    1    59.368767378    51.382491283    12.274012736
     251    2    60.201229574    51.013804382    11.986200029
     252    2    58.888240419    51.548660027    11.464539497
     253    1    65.013267149    51.382491283     7.279263049
     254    2    64.532740190    51.548660027     6.463793712
     255    2    65.845729346    51.013804382     6.991450342
     256    1    65.040339091    47.030947302    14.648467569
     257    2    64.904979384    46.402621739    15.356007140
     258    2    64.904979384    47.882562114    15.062198335
     259    1    56.201350240    51.320178004    12.747704483
     260    2    56.715717126    51.398069603    13.551181623
     261    2    56.241958152    52.187371136    12.345965912
     262    1    61.859385982    51.356527417     7.836900169
     263    2    61.994745689    52.213335003     7.423169402
     264    2    61.994745689    50.728201854     7.129360597
     265    1    67.476813812    46.989405116    10.247331590
     266    2    67.997948683    47.067296714    11.050808731
     267    2    67.524189709    47.861791021     9.851589118
     268    1    67.544493665    49.757153257    13.155439151
     269    2    67.781373152    50.655503028    12.915595228
     270    2    66.678191542    49.627333925    12.765692777
     271    1    65.074179017    49.793502669    11.824305381
     272    2    64.444756381    49.154791560    12.148094676
     273    2    64.810227589    50.619153616    12.226043951
     274    1    61.859385982    50.343936633    11.566473164
     275    2    61.994745689    50.047948558    12.465887874
     276    2    61.994745689    49.559827873    11.026824338
     277    1    67.544493665    45.945657693    14.030869468
     278    2    67.781373152    45.706790124    14.924288080
     279    2    66.678191542    46.345501233    14.108818743
     280    1    59.016832140    49.237875932    14.138799233
     281    2    59.537967011    48.583586503    13.671103584
     282    2    59.064208038    50.016791919    13.587158211
     283    1    64.674867882    49.185948199     9.066100272
     284    2    64.810227589    49.481936274     9.965514981
     285    2    64.810227589    49.964864186     8.532447544
     286    1    62.170713308    49.767538803    14.330674371
     287    2    61.933833821    48.874381804    14.570518294
     288    2    63.037015431    49.897358134    14.714424647
     289    1     9.854186651    25.974251783    45.006712063
     290    2    10.321177639    25.153793610    44.856809612
     291    2    10.321177639    26.623348439    44.485051532
     292    1    15.491918437    30.253096939    47.459116171
     293    2    15.965677410    30.382916270    48.280581606
     294    2    15.965677410    30.798338130    46.823529776
     295    1    15.525758364    25.927516824    44.982727671
     296    2    15.058767375    26.467565242    45.612317968
     297    2    15.058767375    26.052143382    44.155266138
     298    1     6.984560868    25.979444557    45.024700357
     299    2     6.592017718    25.766540854    44.179250530
     300    2     7.925310830    25.937902371    44.868801808
     301    1    12.622292654    30.305024672    47.525073250
     302    2    13.563042616    30.263482486    47.369174700
     303    2    12.229749504    30.092120969    46.679623423
     304    1     1.394204979    25.937902371    44.940754984
     305    2     1.861195968    25.657492615    45.732239929
     306    2     1.861195968    26.711625585    44.640950081
     307    1     7.119920575    30.305024672    47.411147387
     308    2     7.512463724    30.092120969    48.256597213
     309    2     6.172402628    30.263482486    47.567045936
     310    1    12.757652361    25.906745731    49.983473456
     311    2    13.150195510    26.747974997    49.743629533
     312    2    11.816902399    26.062528929    49.941500769
     313    1    11.167175806    29.697470202    45.258548182
     314    2    10.253497786    29.458602632    45.432435026
     315    2    11.126567894    30.606205520    44.964739377
     316    1    13.914977853    32.465218343    45.558353085
     317    2    14.050337560    32.537917168    46.499740481
     318    2    14.050337560    31.535711931    45.366477947
     319    1     8.676557202    28.617373366    45.906126773
     320    2     8.040366581    29.214542290    46.295873147
     321    2     8.412605774    28.549867314    44.988723769
     322    1    14.300753018    32.979302894    48.322554292
     323    2    14.253377120    32.200386907    48.874195314
     324    2    13.779618147    33.638785097    48.790249941
     325    1     5.441460211    28.212337053    45.564349183
     326    2     5.482068123    28.124059908    46.517728775
     327    2     5.955827097    27.480156025    45.228567691
     328    1    11.126567894    32.537917168    48.136675252
     329    2    10.294105698    32.475603889    47.674975701
     330    2    11.607094853    31.753808408    47.878843035
     331    1    16.716923783    28.212337053    50.559098870
     332    2    16.764299680    28.124059908    51.512478462
     333    2    17.238058654    27.480156025    50.229313476
     334    1     8.243406141    26.483143562    47.734936682
     335    2     8.879596762    26.441601376    48.448472351
     336    2     8.507357569    27.241288456    47.219272248
     337    1    13.982657707    30.886615275    50.253297869
     338    2    13.942049795    29.972687184    49.959489063
     339    2    13.075747671    31.120290072    50.427184712
     340    1    11.498807088    26.483143562    47.201283954
     341    2    10.862616466    26.441601376    46.487748285
     342    2    11.234855660    27.241288456    47.716948388
     343    1    14.212769208    28.181180414    49.371871453
     344    2    15.126447229    28.144831001    49.665680258
     345    2    14.253377120    27.973469484    48.442476253
     346    1    11.065656026    28.617373366    49.030093864
     347    2    11.329607454    28.549867314    49.947496867
     348    2    11.701846648    29.219735063    48.640347489
     349    1    13.982657707    27.584011490    46.589681952
     350    2    13.942049795    28.290228652    45.948099459
     351    2    13.075747671    27.313987281    46.709603913
     352    1     4.297670689    25.922324051    50.007457848
     353    2     4.690213839    26.550649614    49.401851944
     354    2     3.356920727    26.036565062    49.893531985
     355    1     4.216454865    30.299831899    57.502580427
     356    2     4.683445853    29.479373725    57.346681877
     357    2     4.683445853    30.948928554    56.980919896
     358    1     9.854186651    30.253096939    52.453865858
     359    2    10.321177639    30.798338130    51.824275561
     360    2    10.321177639    30.382916270    53.281327390
     361    1    15.579902246    25.948287917    54.906269966
     362    2    14.632384299    25.989830103    55.062168515
     363    2    15.972445396    26.161191620    55.751719793
     364    1     4.162310982    25.948287917    55.020195829
     365    2     5.103060944    25.989830103    54.864297279
     366    2     3.769767833    26.161191620    54.174746002
     367    1     9.888026578    25.974251783    49.929508573
     368    2     9.414267604    25.153793610    50.085407123
     369    2     9.414267604    26.623348439    50.451169105
     370    1     9.888026578    30.320602992    57.490588231
     371    2     9.414267604    30.595819974    56.705099385
     372    2     9.414267604    29.541687004    57.790393134
     373    1    15.525758364    30.320602992    52.495838544
     374    2    15.058767375    30.595819974    51.704353600
     375    2    15.058767375    29.541687004    52.795643447
     376    1     1.428044906    25.953480690    49.929508573
     377    2     0.954285933    26.773938864    50.085407123
     378    2     0.954285933    25.304384035    50.451169105
     379    1     1.340061097    30.237518620    57.448615544
     380    2     0.947517947    31.073555112    57.688459467
     381    2     2.287579044    30.393301817    57.490588231
     382    1     6.984560868    30.330988538    52.423885367
     383    2     7.925310830    30.216747527    52.537811231
     384    2     6.592017718    29.707855748    53.035487370
     385    1    12.703508478    26.000215650    54.972227044
     386    2    12.236517490    25.454974459    55.607813439
     387    2    12.236517490    25.870396319    54.150761610
     388    1     1.475420804    30.305024672    52.411893171
     389    2     0.534670842    30.263482486    52.567791721
     390    2     1.867963953    30.092120969    53.257342998
     391    1     7.031936765    25.937902371    54.936250456
     392    2     7.505695739    26.711625585    54.636445553
     393    2     7.505695739    25.657492615    55.721739302
     394    1     3.004985490    29.723434068    54.624453357
     395    2     2.869625783    29.089915732    55.331992928
     396    2     2.869625783    30.575048881    55.038184123
     397    1     8.575037422    29.697470202    49.683668552
     398    2     8.615645334    30.606205520    49.971481260
     399    2     9.488715443    29.458602632    49.503785611
     400    1     5.488836108    29.744205161    50.181344692
     401    2     5.969363067    29.910373905    50.996814028
     402    2     4.656373912    29.375518261    50.469157399
     403    1     2.673354208    28.040975536    48.136675252
     404    2     1.834124026    28.103288815    47.674975701
     405    2     3.153881167    28.830277070    47.878843035
     406    1     2.707194135    32.402905064    55.559844655
     407    2     2.666586223    32.605423220    56.489239854
     408    2     1.793516114    32.439254476    55.266035849
     409    1     8.344925921    32.402905064    50.559098870
     410    2     7.431247900    32.439254476    50.265290065
     411    2     8.304318009    32.605423220    51.494490168
     412    1     8.344925921    28.077324949    58.054221449
     413    2     7.431247900    28.113674361    57.760412644
     414    2     8.304318009    28.279843105    58.989612747
     415    1    13.914977853    28.134445454    53.053475664
     416    2    14.050337560    28.207144280    53.994863060
     417    2    14.050337560    27.210131816    52.861600526
     418    1     0.148895677    27.667095862    53.353280567
     419    2     0.988125859    27.236095683    53.173397625
     420    2    -0.331631282    27.049155846    53.898925491
     421    1     5.759555522    27.584011490    48.346538684
     422    2     5.800163434    28.290228652    48.988121177
     423    2     6.666465557    27.313987281    48.232612821
     424    1     5.820467390    31.873242192    55.889630048
     425    2     5.685107683    32.657350953    56.429278874
     426    2     5.685107683    32.174423041    54.990215339
     427    1    11.464967161    31.873242192    50.894880361
     428    2    11.329607454    32.174423041    49.995465652
     429    2    11.329607454    32.657350953    51.428533089
     430    1    11.464967161    27.547662077    58.390002940
     431    2    11.329607454    28.331770838    58.923655668
     432    2    11.329607454    27.848842926    57.490588231
     433    1     3.038825416    28.617373366    50.900876459
     434    2     2.402634795    29.214542290    51.290622833
     435    2     2.774873988    28.549867314    49.983473456
     436    1     2.937305636    33.000073987    58.342034156
     437    2     2.977913548    32.288664052    58.983616649
     438    2     3.844215672    33.270098196    58.222112195
     439    1     8.663021232    32.979302894    53.317303979
     440    2     8.141886361    33.638785097    53.784999628
     441    2     8.615645334    32.200386907    53.868945001
     442    1    14.300753018    28.653722779    55.817676871
     443    2    14.253377120    27.874806792    56.369317893
     444    2    13.779618147    29.308012208    56.285372520
     445    1     5.488836108    32.537917168    53.131424939
     446    2     4.656373912    32.475603889    52.669725388
     447    2     5.969363067    31.753808408    52.873592722
     448    1    11.065656026    28.155216547    55.631797831
     449    2    11.329607454    28.980867494    55.230059261
     450    2    11.695078663    27.516505438    55.308008536
     451    1     2.639514282    26.535071294    52.807635643
     452    2     2.774873988    27.163396857    52.100096072
     453    2     2.774873988    25.678263708    52.393904877
     454    1     8.344925921    30.886615275    55.248047555
     455    2     7.431247900    31.120290072    55.427930497
     456    2     8.304318009    29.972687184    54.960234848
     457    1    13.982657707    26.561035160    57.748420448
     458    2    13.942049795    25.647107069    57.454611643
     459    2    13.075747671    26.794709957    57.922307291
     460    1     0.135359707    26.467565242    57.166798935
     461    2     1.001661830    26.737589451    56.860997934
     462    2    -0.101519780    27.127047444    57.820373624
     463    1     5.840771346    26.571420707    52.208025837
     464    2     5.319636475    26.493529108    51.404548697
     465    2     5.793395449    25.704227575    52.609764407
     466    1     5.854307317    30.808723677    59.691156220
     467    2     5.218116695    30.772374264    58.977620551
     468    2     5.590355889    31.572061344    60.212816752
     469    1    11.410823279    30.798338130    54.666426043
     470    2    12.277125402    31.063169566    54.360625042
     471    2    11.173943792    31.452627559    55.325996830
     472    1     3.038825416    28.155216547    59.295413748
     473    2     2.774873988    28.980867494    59.697152318
     474    2     2.402634795    27.516505438    59.619203043
     475    1     8.575037422    28.181180414    54.372617238
     476    2     9.488715443    28.144831001    54.666426043
     477    2     8.615645334    27.973469484    53.437225940
     478    1     5.522676035    28.669301099    54.084804531
     479    2     5.482068123    27.963083937    53.443222038
     480    2     4.615766000    28.944518081    54.204726492
     481    1     2.605674355    27.635939223    56.525216443